 Entering Gaussian System, Link 0=g16
 Input=h2_tda.gjf
 Output=h2_tda.log
 Initial command:
 /home/hagai/g16/g16/l1.exe "/home/hagai/g16/gaussian_parser/tests/data/Gau-177004.inp" -scrdir="/home/hagai/g16/gaussian_parser/tests/data/"
 Entering Link 1 = /home/hagai/g16/g16/l1.exe PID=    177006.
  
 Copyright (c) 1988,1990,1992,1993,1995,1998,2003,2009,2016,
            Gaussian, Inc.  All Rights Reserved.
  
 This is part of the Gaussian(R) 16 program.  It is based on
 the Gaussian(R) 09 system (copyright 2009, Gaussian, Inc.),
 the Gaussian(R) 03 system (copyright 2003, Gaussian, Inc.),
 the Gaussian(R) 98 system (copyright 1998, Gaussian, Inc.),
 the Gaussian(R) 94 system (copyright 1995, Gaussian, Inc.),
 the Gaussian 92(TM) system (copyright 1992, Gaussian, Inc.),
 the Gaussian 90(TM) system (copyright 1990, Gaussian, Inc.),
 the Gaussian 88(TM) system (copyright 1988, Gaussian, Inc.),
 the Gaussian 86(TM) system (copyright 1986, Carnegie Mellon
 University), and the Gaussian 82(TM) system (copyright 1983,
 Carnegie Mellon University). Gaussian is a federally registered
 trademark of Gaussian, Inc.
  
 This software contains proprietary and confidential information,
 including trade secrets, belonging to Gaussian, Inc.
  
 This software is provided under written license and may be
 used, copied, transmitted, or stored only in accord with that
 written license.
  
 The following legend is applicable only to US Government
 contracts under FAR:
  
                    RESTRICTED RIGHTS LEGEND
  
 Use, reproduction and disclosure by the US Government is
 subject to restrictions as set forth in subparagraphs (a)
 and (c) of the Commercial Computer Software - Restricted
 Rights clause in FAR 52.227-19.
  
 Gaussian, Inc.
 340 Quinnipiac St., Bldg. 40, Wallingford CT 06492
  
  
 ---------------------------------------------------------------
 Warning -- This program may not be used in any manner that
 competes with the business of Gaussian, Inc. or will provide
 assistance to any competitor of Gaussian, Inc.  The licensee
 of this program is prohibited from giving any competitor of
 Gaussian, Inc. access to this program.  By using this program,
 the user acknowledges that Gaussian, Inc. is engaged in the
 business of creating and licensing software in the field of
 computational chemistry and represents and warrants to the
 licensee that it is not a competitor of Gaussian, Inc. and that
 it will not use this program in any manner prohibited above.
 ---------------------------------------------------------------
  

 Cite this work as:
 Gaussian 16, Revision A.03,
 M. J. Frisch, G. W. Trucks, H. B. Schlegel, G. E. Scuseria, 
 M. A. Robb, J. R. Cheeseman, G. Scalmani, V. Barone, 
 G. A. Petersson, H. Nakatsuji, X. Li, M. Caricato, A. V. Marenich, 
 J. Bloino, B. G. Janesko, R. Gomperts, B. Mennucci, H. P. Hratchian, 
 J. V. Ortiz, A. F. Izmaylov, J. L. Sonnenberg, D. Williams-Young, 
 F. Ding, F. Lipparini, F. Egidi, J. Goings, B. Peng, A. Petrone, 
 T. Henderson, D. Ranasinghe, V. G. Zakrzewski, J. Gao, N. Rega, 
 G. Zheng, W. Liang, M. Hada, M. Ehara, K. Toyota, R. Fukuda, 
 J. Hasegawa, M. Ishida, T. Nakajima, Y. Honda, O. Kitao, H. Nakai, 
 T. Vreven, K. Throssell, J. A. Montgomery, Jr., J. E. Peralta, 
 F. Ogliaro, M. J. Bearpark, J. J. Heyd, E. N. Brothers, K. N. Kudin, 
 V. N. Staroverov, T. A. Keith, R. Kobayashi, J. Normand, 
 K. Raghavachari, A. P. Rendell, J. C. Burant, S. S. Iyengar, 
 J. Tomasi, M. Cossi, J. M. Millam, M. Klene, C. Adamo, R. Cammi, 
 J. W. Ochterski, R. L. Martin, K. Morokuma, O. Farkas, 
 J. B. Foresman, and D. J. Fox, Gaussian, Inc., Wallingford CT, 2016.
 
 ******************************************
 Gaussian 16:  AS64L-G16RevA.03 25-Dec-2016
                16-Jan-2025 
 ******************************************
 %Chk=h2_tda.chk
 %Mem=2GB
 %rwf=h2_tda.rwf
 %NProcShared=32
 Will use up to   32 processors via shared memory.
 ----------------------------------------------------------------------
 #p tda(nstates=6,root=1,conver=6) freq PBE1PBE/6-31G 6D 10F nosymm GFI
 nput scf=tight IOP(10/33=4,10/95=9)
 ----------------------------------------------------------------------
 1/10=4,30=1,38=1/1,3;
 2/12=2,15=1,17=6,18=5,40=1/2;
 3/5=1,6=6,8=22,11=9,24=10,25=1,30=1,71=2,74=-13,140=1/1,2,3,8;
 4//1;
 5/5=2,32=2,38=5,98=1/2;
 8/6=1,10=2,107=1,108=6/1;
 9/8=1,9=6,15=3,41=6,42=1/14;
 10/5=3004,20=4,28=1,31=1,33=4,95=9/2;
 11/6=1,8=1,12=-1,16=1,31=1,42=3/1,2,10;
 10/6=3,21=1,28=1,31=1,33=4,95=9/2,14;
 6/7=2,8=2,9=2,10=2/1;
 7/8=1,10=1,12=6,13=8,14=1,25=1,30=1,44=2/1,2,3,16;
 1/10=4,30=1/3;
 99//99;
 Leave Link    1 at Thu Jan 16 11:13:22 2025, MaxMem=   268435456 cpu:               0.1 elap:               0.0
 (Enter /home/hagai/g16/g16/l101.exe)
 -----
 title
 -----
 Symbolic Z-matrix:
 Charge =  0 Multiplicity = 1
 H                     0.        0.        0. 
 H                     0.        0.        0.74 
 
 ITRead=  0  0
 MicOpt= -1 -1
 NAtoms=      2 NQM=        2 NQMF=       0 NMMI=      0 NMMIF=      0
                NMic=       0 NMicF=      0.
                    Isotopes and Nuclear Properties:
 (Nuclear quadrupole moments (NQMom) in fm**2, nuclear magnetic moments (NMagM)
  in nuclear magnetons)

  Atom         1           2
 IAtWgt=           1           1
 AtmWgt=   1.0078250   1.0078250
 NucSpn=           1           1
 AtZEff=  -0.0000000  -0.0000000
 NQMom=    0.0000000   0.0000000
 NMagM=    2.7928460   2.7928460
 AtZNuc=   1.0000000   1.0000000
 Leave Link  101 at Thu Jan 16 11:13:22 2025, MaxMem=   268435456 cpu:               0.1 elap:               0.1
 (Enter /home/hagai/g16/g16/l103.exe)

 GradGradGradGradGradGradGradGradGradGradGradGradGradGradGradGradGradGrad
 Berny optimization.
 Initialization pass.
 Trust Radius=3.00D-01 FncErr=1.00D-07 GrdErr=1.00D-07 EigMax=2.50D+02 EigMin=1.00D-04
 Number of steps in this run=      2 maximum allowed number of steps=      2.
 GradGradGradGradGradGradGradGradGradGradGradGradGradGradGradGradGradGrad

 Leave Link  103 at Thu Jan 16 11:13:22 2025, MaxMem=   268435456 cpu:               0.1 elap:               0.0
 (Enter /home/hagai/g16/g16/l202.exe)
                          Input orientation:                          
 ---------------------------------------------------------------------
 Center     Atomic      Atomic             Coordinates (Angstroms)
 Number     Number       Type             X           Y           Z
 ---------------------------------------------------------------------
      1          1           0        0.000000    0.000000    0.000000
      2          1           0        0.000000    0.000000    0.740000
 ---------------------------------------------------------------------
 Symmetry turned off by external request.
 Stoichiometry    H2
 Framework group  D*H[C*(H.H)]
 Deg. of freedom     1
 Full point group                 D*H     NOp   8
 Rotational constants (GHZ):           0.0000000        1831.4649542        1831.4649542
 Leave Link  202 at Thu Jan 16 11:13:22 2025, MaxMem=   268435456 cpu:               0.0 elap:               0.0
 (Enter /home/hagai/g16/g16/l301.exe)
 Standard basis: 6-31G (6D, 10F)
 Ernie: Thresh=  0.10000D-02 Tol=  0.10000D-05 Strict=F.
 AO basis set in the form of general basis input (Overlap normalization):
      1 0
 S   3 1.00       0.000000000000
      0.1873113696D+02  0.3349460434D-01
      0.2825394365D+01  0.2347269535D+00
      0.6401216923D+00  0.8137573261D+00
 S   1 1.00       0.000000000000
      0.1612777588D+00  0.1000000000D+01
 ****
      2 0
 S   3 1.00       0.000000000000
      0.1873113696D+02  0.3349460434D-01
      0.2825394365D+01  0.2347269535D+00
      0.6401216923D+00  0.8137573261D+00
 S   1 1.00       0.000000000000
      0.1612777588D+00  0.1000000000D+01
 ****

     4 basis functions,     8 primitive gaussians,     4 cartesian basis functions
     1 alpha electrons        1 beta electrons
       nuclear repulsion energy         0.7151043391 Hartrees.
 IExCor= 1009 DFT=T Ex+Corr=PBE1PBE ExCW=0 ScaHFX=  0.250000
 ScaDFX=  0.750000  0.750000  1.000000  1.000000 ScalE2=  1.000000  1.000000
 IRadAn=      5 IRanWt=     -1 IRanGd=            0 ICorTp=0 IEmpDi=  4
 NAtoms=    2 NActive=    2 NUniq=    2 SFac= 1.00D+00 NAtFMM=   60 NAOKFM=F Big=F
 Integral buffers will be    131072 words long.
 Regular integral format.
 Two-electron integral symmetry is turned off.
 Leave Link  301 at Thu Jan 16 11:13:22 2025, MaxMem=   268435456 cpu:               0.1 elap:               0.0
 (Enter /home/hagai/g16/g16/l302.exe)
 NPDir=0 NMtPBC=     1 NCelOv=     1 NCel=       1 NClECP=     1 NCelD=      1
         NCelK=      1 NCelE2=     1 NClLst=     1 CellRange=     0.0.
 One-electron integrals computed using PRISM.
 NBasis=     4 RedAO= T EigKep=  9.62D-02  NBF=     4
 NBsUse=     4 1.00D-06 EigRej= -1.00D+00 NBFU=     4
 Precomputing XC quadrature grid using
 IXCGrd= 4 IRadAn=           5 IRanWt=          -1 IRanGd=           0 AccXCQ= 0.00D+00.
 Generated NRdTot=       0 NPtTot=           0 NUsed=           0 NTot=          32
 NSgBfM=     4     4     4     4     4 MxSgAt=     2 MxSgA2=     2.
 Leave Link  302 at Thu Jan 16 11:13:22 2025, MaxMem=   268435456 cpu:               0.3 elap:               0.0
 (Enter /home/hagai/g16/g16/l303.exe)
 DipDrv:  MaxL=1.
 Leave Link  303 at Thu Jan 16 11:13:22 2025, MaxMem=   268435456 cpu:               0.1 elap:               0.0
 (Enter /home/hagai/g16/g16/l308.exe)
 Leave Link  308 at Thu Jan 16 11:13:22 2025, MaxMem=   268435456 cpu:               0.1 elap:               0.0
 (Enter /home/hagai/g16/g16/l401.exe)
 ExpMin= 1.61D-01 ExpMax= 1.87D+01 ExpMxC= 1.87D+01 IAcc=3 IRadAn=         5 AccDes= 0.00D+00
 Harris functional with IExCor= 1009 and IRadAn=       5 diagonalized for initial guess.
 HarFok:  IExCor= 1009 AccDes= 0.00D+00 IRadAn=         5 IDoV= 1 UseB2=F ITyADJ=14
 ICtDFT=  3500011 ScaDFX=  1.000000  1.000000  1.000000  1.000000
 FoFCou: FMM=F IPFlag=           0 FMFlag=      100000 FMFlg1=           0
         NFxFlg=           0 DoJE=T BraDBF=F KetDBF=T FulRan=T
         wScrn=  0.000000 ICntrl=       500 IOpCl=  0 I1Cent=   200000004 NGrid=           0
         NMat0=    1 NMatS0=      1 NMatT0=    0 NMatD0=    1 NMtDS0=    0 NMtDT0=    0
 Symmetry not used in FoFCou.
 Harris En= -1.17535222763009    
 JPrj=0 DoOrth=F DoCkMO=F.
 Leave Link  401 at Thu Jan 16 11:13:22 2025, MaxMem=   268435456 cpu:               0.4 elap:               0.0
 (Enter /home/hagai/g16/g16/l502.exe)
 Keep R1 ints in memory in canonical form, NReq=26794625.
 FoFCou: FMM=F IPFlag=           0 FMFlag=           0 FMFlg1=           0
         NFxFlg=           0 DoJE=F BraDBF=F KetDBF=F FulRan=T
         wScrn=  0.000000 ICntrl=       600 IOpCl=  0 I1Cent=           0 NGrid=           0
         NMat0=    1 NMatS0=     10 NMatT0=    0 NMatD0=    1 NMtDS0=    0 NMtDT0=    0
 Symmetry not used in FoFCou.
 Two-electron integral symmetry not used.
 Closed shell SCF:
 Using DIIS extrapolation, IDIIS=  1040.
 NGot=   268435456 LenX=   268433537 LenY=   268432655
 Requested convergence on RMS density matrix=1.00D-08 within 128 cycles.
 Requested convergence on MAX density matrix=1.00D-06.
 Requested convergence on             energy=1.00D-06.
 No special actions if energy rises.
 Integral accuracy reduced to 1.0D-05 until final iterations.

 Cycle   1  Pass 0  IDiag  1:
 E= -1.16045512471404    
 DIIS: error= 2.22D-02 at cycle   1 NSaved=   1.
 NSaved= 1 IEnMin= 1 EnMin= -1.16045512471404     IErMin= 1 ErrMin= 2.22D-02
 ErrMax= 2.22D-02  0.00D+00 EMaxC= 1.00D-01 BMatC= 1.97D-03 BMatP= 1.97D-03
 IDIUse=3 WtCom= 7.78D-01 WtEn= 2.22D-01
 Coeff-Com:  0.100D+01
 Coeff-En:   0.100D+01
 Coeff:      0.100D+01
 Gap=     0.551 Goal=   None    Shift=    0.000
 GapD=    0.551 DampG=2.000 DampE=0.500 DampFc=1.0000 IDamp=-1.
 RMSDP=1.35D-02 MaxDP=2.23D-02              OVMax= 4.27D-02

 Cycle   2  Pass 0  IDiag  1:
 E= -1.16383602102085     Delta-E=       -0.003380896307 Rises=F Damp=F
 DIIS: error= 2.44D-03 at cycle   2 NSaved=   2.
 NSaved= 2 IEnMin= 2 EnMin= -1.16383602102085     IErMin= 2 ErrMin= 2.44D-03
 ErrMax= 2.44D-03  0.00D+00 EMaxC= 1.00D-01 BMatC= 2.37D-05 BMatP= 1.97D-03
 IDIUse=3 WtCom= 9.76D-01 WtEn= 2.44D-02
 Coeff-Com:  0.989D-01 0.901D+00
 Coeff-En:   0.000D+00 0.100D+01
 Coeff:      0.965D-01 0.903D+00
 Gap=     0.558 Goal=   None    Shift=    0.000
 RMSDP=1.32D-03 MaxDP=2.12D-03 DE=-3.38D-03 OVMax= 4.21D-03

 Cycle   3  Pass 0  IDiag  1:
 E= -1.16387695860499     Delta-E=       -0.000040937584 Rises=F Damp=F
 DIIS: error= 2.52D-06 at cycle   3 NSaved=   3.
 NSaved= 3 IEnMin= 3 EnMin= -1.16387695860499     IErMin= 3 ErrMin= 2.52D-06
 ErrMax= 2.52D-06  0.00D+00 EMaxC= 1.00D-01 BMatC= 2.54D-11 BMatP= 2.37D-05
 IDIUse=1 WtCom= 1.00D+00 WtEn= 0.00D+00
 Large coefficients: NSaved=  3 BigCof=    0.00 CofMax=   10.00 Det= 0.00D+00
 Inversion failed.  Reducing to  2 matrices.
 Coeff-Com:  0.103D-02 0.999D+00
 Coeff:      0.103D-02 0.999D+00
 Gap=     0.558 Goal=   None    Shift=    0.000
 RMSDP=1.36D-06 MaxDP=2.20D-06 DE=-4.09D-05 OVMax= 4.35D-06

 Initial convergence to 1.0D-05 achieved.  Increase integral accuracy.
 Cycle   4  Pass 1  IDiag  1:
 E= -1.16387698861700     Delta-E=       -0.000000030012 Rises=F Damp=F
 DIIS: error= 1.97D-08 at cycle   1 NSaved=   1.
 NSaved= 1 IEnMin= 1 EnMin= -1.16387698861700     IErMin= 1 ErrMin= 1.97D-08
 ErrMax= 1.97D-08  0.00D+00 EMaxC= 1.00D-01 BMatC= 1.55D-15 BMatP= 1.55D-15
 IDIUse=1 WtCom= 1.00D+00 WtEn= 0.00D+00
 Coeff-Com:  0.100D+01
 Coeff:      0.100D+01
 Gap=     0.558 Goal=   None    Shift=    0.000
 RMSDP=1.36D-06 MaxDP=2.20D-06 DE=-3.00D-08 OVMax= 3.75D-08

 Cycle   5  Pass 1  IDiag  1:
 E= -1.16387698861700     Delta-E=       -0.000000000000 Rises=F Damp=F
 DIIS: error= 2.11D-09 at cycle   2 NSaved=   2.
 NSaved= 2 IEnMin= 2 EnMin= -1.16387698861700     IErMin= 2 ErrMin= 2.11D-09
 ErrMax= 2.11D-09  0.00D+00 EMaxC= 1.00D-01 BMatC= 1.79D-17 BMatP= 1.55D-15
 IDIUse=1 WtCom= 1.00D+00 WtEn= 0.00D+00
 Coeff-Com:  0.971D-01 0.903D+00
 Coeff:      0.971D-01 0.903D+00
 Gap=     0.558 Goal=   None    Shift=    0.000
 RMSDP=1.14D-09 MaxDP=1.85D-09 DE=-2.66D-15 OVMax= 3.65D-09

 SCF Done:  E(RPBE1PBE) =  -1.16387698862     A.U. after    5 cycles
            NFock=  5  Conv=0.11D-08     -V/T= 2.0196
 KE= 1.141556484120D+00 PE=-3.637782762814D+00 EE= 6.172449509955D-01
 Leave Link  502 at Thu Jan 16 11:13:22 2025, MaxMem=   268435456 cpu:               0.5 elap:               0.0
 (Enter /home/hagai/g16/g16/l801.exe)
 DoSCS=F DFT=T ScalE2(SS,OS)=  1.000000  1.000000
 Range of M.O.s used for correlation:     1     4
 NBasis=     4 NAE=     1 NBE=     1 NFC=     0 NFV=     0
 NROrb=      4 NOA=     1 NOB=     1 NVA=     3 NVB=     3
 Leave Link  801 at Thu Jan 16 11:13:22 2025, MaxMem=   268435456 cpu:               0.1 elap:               0.0
 (Enter /home/hagai/g16/g16/l914.exe)
 RHF ground state
 Keep R1, R2, and R3 ints in memory in canonical form, NReq=27313539.
 FoFCou: FMM=F IPFlag=           0 FMFlag=           0 FMFlg1=           0
         NFxFlg=           0 DoJE=F BraDBF=F KetDBF=F FulRan=T
         wScrn=  0.000000 ICntrl=       600 IOpCl=  0 I1Cent=           0 NGrid=           0
         NMat0=    1 NMatS0=     10 NMatT0=    0 NMatD0=    1 NMtDS0=    0 NMtDT0=    0
 Symmetry not used in FoFCou.
 Two-electron integral symmetry not used.
 MDV=   268435456 DFT=T DoStab=F Mixed=T DoRPA=F DoScal=F NonHer=F
 Making orbital integer symmetry assigments:
     3 initial guesses have been made.
 Convergence on wavefunction:    0.000001000000000
 Davidson Disk Diagonalization:  ConvIn= 1.00D-06 SkipCon=T Conv= 1.00D-06.
 Max sub-space:    12 roots to seek:     6 dimension of matrix:            6
 *** WARNING: Number of orthogonal guesses is            3
 Iteration     1 Dimension     3 NMult     0 NNew      3
 CISAX will form     3 AO SS matrices at one time.
 NMat=     3 NSing=     3 JSym2X= 0.
 Excitation Energies [eV] at current iteration:
 Root      1 :    15.086524686165651
 Root      2 :    28.584868037172249
 Root      3 :    43.109929384665485
 Convergence achieved for final wavefunctions.
 ***********************************************************************
 Excited states from <AA,BB:AA,BB> singles matrix:
 ***********************************************************************
 
 1PDM for each excited state written to RWF  633
 Ground to excited state transition densities written to RWF  633
 Ground to excited state transition electric dipole moments (Au):
       state          X           Y           Z        Dip. S.      Osc.
         1        -0.0000     -0.0000      1.4179      2.0104      0.7431
         2        -0.0000     -0.0000     -0.0000      0.0000      0.0000
         3        -0.0000     -0.0000     -0.3616      0.1307      0.1381
 Ground to excited state transition velocity dipole moments (Au):
       state          X           Y           Z        Dip. S.      Osc.
         1         0.0000      0.0000     -0.6135      0.3764      0.4526
         2         0.0000      0.0000      0.0000      0.0000      0.0000
         3         0.0000      0.0000      0.2499      0.0625      0.0263
 Ground to excited state transition magnetic dipole moments (Au):
       state          X           Y           Z
         1         0.0000      0.0000      0.0000
         2         0.0000      0.0000      0.0000
         3         0.0000      0.0000      0.0000
 Ground to excited state transition velocity quadrupole moments (Au):
       state          XX          YY          ZZ          XY          XZ          YZ
         1        -0.0000     -0.0000     -0.8579      0.0000      0.0000      0.0000
         2        -0.9005     -0.9005     -0.6972      0.0000      0.0000      0.0000
         3         0.0000      0.0000      0.3495      0.0000      0.0000      0.0000
 <0|del|b> * <b|rxdel|0> + <0|del|b> * <b|delr+rdel|0>
 Rotatory Strengths (R) in cgs (10**-40 erg-esu-cm/Gauss)
       state          XX          YY          ZZ    R(velocity)    E-M Angle
         1         0.0000      0.0000      0.0000      0.0000       90.00
         2         0.0000      0.0000      0.0000      0.0000       90.00
         3         0.0000      0.0000      0.0000      0.0000       90.00
 1/2[<0|r|b>*<b|rxdel|0> + (<0|rxdel|b>*<b|r|0>)*]
 Rotatory Strengths (R) in cgs (10**-40 erg-esu-cm/Gauss)
       state          XX          YY          ZZ     R(length)
         1         0.0000      0.0000     -0.0000     -0.0000
         2         0.0000      0.0000      0.0000      0.0000
         3         0.0000      0.0000      0.0000      0.0000
  1/2[<0|del|b>*<b|r|0> + (<0|r|b>*<b|del|0>)*] (Au)
       state          X           Y           Z        Dip. S.   Osc.(frdel)
         1        -0.0000     -0.0000     -0.8699      0.8699      0.5799
         2        -0.0000     -0.0000     -0.0000      0.0000      0.0000
         3        -0.0000     -0.0000     -0.0904      0.0904      0.0602

 Excitation energies and oscillator strengths:
 
 Excited state symmetry could not be determined.
 Excited State   1:      Singlet-?Sym   15.0865 eV   82.18 nm  f=0.7431  <S**2>=0.000
       1 ->  2         0.70431
 This state for optimization and/or second-order correction.
 Total Energy, E(CIS/TDA) = -0.609457407687    
 Copying the excited state density for this state as the 1-particle RhoCI density.
 
 Excited state symmetry could not be determined.
 Excited State   2:      Singlet-?Sym   28.5849 eV   43.37 nm  f=0.0000  <S**2>=0.000
       1 ->  3         0.70711
 
 Excited state symmetry could not be determined.
 Excited State   3:      Singlet-?Sym   43.1099 eV   28.76 nm  f=0.1381  <S**2>=0.000
       1 ->  4         0.70431
 SavETr:  write IOETrn=   770 NScale= 10 NData=  16 NLR=1 NState=    3 LETran=      64.
 The selected state is a singlet.
 CISGrd: IGrad=3 NXY=1 DFT=T
 CISAX will form     1 AO SS matrices at one time.
 NMat=     1 NSing=     1 JSym2X= 0.
 Leave Link  914 at Thu Jan 16 11:13:22 2025, MaxMem=   268435456 cpu:               0.6 elap:               0.0
 (Enter /home/hagai/g16/g16/l1002.exe)
 IGridI=           0 IGrid123=000 TLFunc=F ICheap=0.
 Minotr:  Closed shell wavefunction.
          Computing CIS/TDA/TD derivatives.
          Using Z-Vector for PSCF gradient.
          Skipping F1 and S1 gradient terms here.
          IDoAtm=11
 GetPCM: File not found, return IValue=0.
          Direct CPHF calculation.
          Differentiating once with respect to electric field.
                with respect to dipole field.
          Differentiating once with respect to nuclear coordinates.
          Requested convergence is 1.0D-10 RMS, and 1.0D-09 maximum.
          NewPWx=F KeepS1=T KeepF1=T KeepIn=T MapXYZ=F SortEE=F KeepMc=T.
 ReadGW:  IGet=1 IStart=         514 Next=         514 LGW=           0.
 IGWInf: 
              1
     1           32
     2            2
     3            5
     4           -1
     5            0
     6            2
     7            0
     8            0
     9        42704
    10            0
    11            0
    12            0
    13            1
    14            0
    15            0
    16            0
    17            0
    18            4
    19            4
    20            4
    21            4
    22            4
    23            2
    24            2
    25            0
    26            0
    27            0
    28            0
    29            0
    30            0
    31            0
    32            0
 Using stored XC quadrature information.
 IGWInf( 1) =          32 (NGWInf)
 IGWInf( 2) =           2 (NAtomA)
 IGWInf( 3) =           5 (IRadAn)
 IGWInf( 4) =          -1 (IRanWt)
 IGWInf( 5) =           0 (IRanGd)
 IGWInf( 6) =           2 (IRType)
 IGWInf( 7) =           0 (NRdTot)
 IGWInf( 8) =           0 (NGWTot)
 IGWInf( 9) =       42704 (LGWBtD)
 IGWInf(10) =           0 (NAtBtD)
 IGWInf(11) =           0 (NIRBtD)
 IGWInf(12) =           0 (NRRBtD)
 IGWInf(13) =           1 (NClRep)
 IGWInf(14) =           0 (ICntr3)
 IGWInf(15) =           0 (IPFlag)
 IGWInf(16) =           0 (IGet)  
 IGWInf(17) =           0         
 IGWInf(18) =           4         
 IGWInf(19) =           4         
 IGWInf(20) =           4         
 IGWInf(21) =           4         
 IGWInf(22) =           4         
 IGWInf(23) =           2         
 IGWInf(24) =           2         
 IGWInf(25) =           0         
 IGWInf(26) =           0         
 IGWInf(27) =           0         
 IGWInf(28) =           0         
 IGWInf(29) =           0         
 IGWInf(30) =           0         
 IGWInf(31) =           0         
 IGWInf(32) =           0         
 IAtBtD: 
              1            2
 ShPair: Thresh= 1.00D-14 NBox=     0 BxSize= 0.00D+00 RnKept= 1.40D+00
         NSMCal=                   10 NSMKep=                  10
 Pruned (  99, 590) grid will be used in numerical quadrature.
 NFPSXC: from=DFTMem NMatDP=   0 NFPS=    12 NFPSI=     3 NFPS2=     4 MaxFPS=  1300 MaxFTr=     1
 IHM=  1 FMM=F JS2E= 0 NPI=  -1 NP=  32 NAt=     2 NB=      4 NM=     0 NOp=1 NPX=  33 ICOK=T
 SetICI:  IOpClM=           0 LR1=              1 LR2=              0 LR3=              0
          LRAOJ=           55 InStor=           3 jStart=         522 jR1=            522
          jR2=            577 jR3=            577 LenR=            55 jVInt=          577
          jVSAO=          577 jVPerm=         577 MDV=      268435456
 Keep R1 ints in memory in canonical form, NReq=26796028.
 FoFCou: FMM=F IPFlag=           0 FMFlag=           0 FMFlg1=           0
         NFxFlg=           0 DoJE=F BraDBF=F KetDBF=F FulRan=T
         wScrn=  0.000000 ICntrl=       600 IOpCl=  0 I1Cent=           0 NGrid=           0
         NMat0=    1 NMatS0=     10 NMatT0=    0 NMatD0=    1 NMtDS0=    0 NMtDT0=    0
 Symmetry not used in FoFCou.
 FoFCou:  KetSym=F NOpSet=  1 NOpAb=1 NOp=  1.
 FoFCou:  CnvScl= 1.00D+00 Thresh= 1.00D-14 IAcrcy=      10.
 IniFok:  ToCart=T IDoP0=0 DoConv=F DoRafP=T DoAdj=T
 ShPair: Thresh= 1.00D-14 NBox=     0 BxSize= 0.00D+00 RnKept= 1.40D+00
         NSMCal=                   10 NSMKep=                  10
 PrismS was handed   268433649 working-precision words and    10 shell-pairs
 FoFCou: LinMIO=F DoNuc=F BraDBF=F KetDBF=F HaveP=F PDBF=F HaveZ=F HaveW=F
         NIJTC =       1 NIJTAt=       0 NIJTCD=       0 NIJTT =       1
         IJTBeg=       1 IJTEnd=       1 KLTBeg=       1 KLTEnd=       1
         IPTBeg=       1 IPTEnd=       1 IPTBCv=       1 IPTECv=       1
         IZTBeg=       1 IZTEnd=       1 IZTBCv=       1 IZTECv=       1
         IWTBeg=       2 IWTEnd=       1 IWTBCv=       2 IWTECv=       1
         INTBeg=       1 INTEnd=       0 IFTBCv=       1 IFTECv=       1
 NCel replicated for PrismC:     1
 CoulSu-InSpLW:  IPartL=    0 NPrtUS=   32 NPrtUL=    1 DoSpLW=F IThBeg=    0 IThEnd=   31 NThAct=   32.
 CoulSu:  IncDef=  1024 NBBP=             55 NTPThr=   100 NPartT=   32 Incr=           1 LDynOK=F GPUOK=F.
 CoulSu:  NPrtUS=  32 ThrOK=T IAlg=1 NPAlg=1 LenDen=           0 LWGrdD=           0 DoCopy=F ISkipM=0
          DoSpLW=F IThBeg=    0 IThEnd=   31.
 CoulSu:  IPart=    0 IPartR=    0 CPU=   -1 GPU=   -1.
 CoulSu:  IPart=    1 IPartR=    1 CPU=   -1 GPU=   -1.
 Enter PrismC:  IPart=  1 JobTyp=20 DoJE=F Cont=F.
 PrismC:  IPart=     1 DynPar=F LinDyn=F Incr=           1 UseFst=F UseS4=T ISplat=1.
 PrismC was handed     8387690 working-precision words and    10 shell-pairs
 Enter PrismC:  IPart=  0 JobTyp=20 DoJE=F Cont=F.
 PrismC:  IPart=     0 DynPar=F LinDyn=F Incr=           1 UseFst=F UseS4=T ISplat=1.
 PrismC was handed     8387690 working-precision words and    10 shell-pairs
 CoulSu:  IPart=   19 IPartR=   19 CPU=   -1 GPU=   -1.
 Enter PrismC:  IPart= 19 JobTyp=20 DoJE=F Cont=F.
 PrismC:  IPart=    19 DynPar=F LinDyn=F Incr=           1 UseFst=F UseS4=T ISplat=1.
 PrismC was handed     8387690 working-precision words and    10 shell-pairs
 CoulSu:  IPart=    3 IPartR=    3 CPU=   -1 GPU=   -1.
 CoulSu:  IPart=   13 IPartR=   13 CPU=   -1 GPU=   -1.
 Enter PrismC:  IPart=  3 JobTyp=20 DoJE=F Cont=F.
 Enter PrismC:  IPart= 13 JobTyp=20 DoJE=F Cont=F.
 PrismC:  IPart=     3 DynPar=F LinDyn=F Incr=           1 UseFst=F UseS4=T ISplat=1.
 PrismC was handed     8387690 working-precision words and    10 shell-pairs
 PrismC:  IPart=    13 DynPar=F LinDyn=F Incr=           1 UseFst=F UseS4=T ISplat=1.
 PrismC was handed     8387690 working-precision words and    10 shell-pairs
 CoulSu:  IPart=   25 IPartR=   25 CPU=   -1 GPU=   -1.
 CoulSu:  IPart=    9 IPartR=    9 CPU=   -1 GPU=   -1.
 Enter PrismC:  IPart= 25 JobTyp=20 DoJE=F Cont=F.
 CoulSu:  IPart=   27 IPartR=   27 CPU=   -1 GPU=   -1.
 CoulSu:  IPart=   11 IPartR=   11 CPU=   -1 GPU=   -1.
 CoulSu:  IPart=   31 IPartR=   31 CPU=   -1 GPU=   -1.
 PrismC:  IPart=    25 DynPar=F LinDyn=F Incr=           1 UseFst=F UseS4=T ISplat=1.
 PrismC was handed     8387690 working-precision words and    10 shell-pairs
 Enter PrismC:  IPart=  9 JobTyp=20 DoJE=F Cont=F.
 Enter PrismC:  IPart= 11 JobTyp=20 DoJE=F Cont=F.
 Enter PrismC:  IPart= 27 JobTyp=20 DoJE=F Cont=F.
 PrismC:  IPart=     9 DynPar=F LinDyn=F Incr=           1 UseFst=F UseS4=T ISplat=1.
 PrismC was handed     8387690 working-precision words and    10 shell-pairs
 Enter PrismC:  IPart= 31 JobTyp=20 DoJE=F Cont=F.
 CoulSu:  IPart=   30 IPartR=   30 CPU=   -1 GPU=   -1.
 PrismC:  IPart=    11 DynPar=F LinDyn=F Incr=           1 UseFst=F UseS4=T ISplat=1.
 CoulSu:  IPart=   21 IPartR=   21 CPU=   -1 GPU=   -1.
 PrismC was handed     8387690 working-precision words and    10 shell-pairs
 CoulSu:  IPart=   10 IPartR=   10 CPU=   -1 GPU=   -1.
 PrismC:  IPart=    27 DynPar=F LinDyn=F Incr=           1 UseFst=F UseS4=T ISplat=1.
 PrismC was handed     8387690 working-precision words and    10 shell-pairs
 PrismC:  IPart=    31 DynPar=F LinDyn=F Incr=           1 UseFst=F UseS4=T ISplat=1.
 PrismC was handed     8387690 working-precision words and    10 shell-pairs
 Enter PrismC:  IPart= 30 JobTyp=20 DoJE=F Cont=F.
 Enter PrismC:  IPart= 10 JobTyp=20 DoJE=F Cont=F.
 PrismC:  IPart=    30 DynPar=F LinDyn=F Incr=           1 UseFst=F UseS4=T ISplat=1.
 PrismC was handed     8387690 working-precision words and    10 shell-pairs
 CoulSu:  IPart=   24 IPartR=   24 CPU=   -1 GPU=   -1.
 CoulSu:  IPart=   17 IPartR=   17 CPU=   -1 GPU=   -1.
 CoulSu:  IPart=    6 IPartR=    6 CPU=   -1 GPU=   -1.
 PrismC:  IPart=    10 DynPar=F LinDyn=F Incr=           1 UseFst=F UseS4=T ISplat=1.
 PrismC was handed     8387690 working-precision words and    10 shell-pairs
 CoulSu:  IPart=   16 IPartR=   16 CPU=   -1 GPU=   -1.
 CoulSu:  IPart=   15 IPartR=   15 CPU=   -1 GPU=   -1.
 Enter PrismC:  IPart= 21 JobTyp=20 DoJE=F Cont=F.
 Enter PrismC:  IPart= 15 JobTyp=20 DoJE=F Cont=F.
 PrismC:  IPart=    21 DynPar=F LinDyn=F Incr=           1 UseFst=F UseS4=T ISplat=1.
 Enter PrismC:  IPart=  6 JobTyp=20 DoJE=F Cont=F.
 PrismC was handed     8387690 working-precision words and    10 shell-pairs
 PrismC:  IPart=    15 DynPar=F LinDyn=F Incr=           1 UseFst=F UseS4=T ISplat=1.
 PrismC was handed     8387690 working-precision words and    10 shell-pairs
 Enter PrismC:  IPart= 17 JobTyp=20 DoJE=F Cont=F.
 Enter PrismC:  IPart= 24 JobTyp=20 DoJE=F Cont=F.
 PrismC:  IPart=     6 DynPar=F LinDyn=F Incr=           1 UseFst=F UseS4=T ISplat=1.
 Enter PrismC:  IPart= 16 JobTyp=20 DoJE=F Cont=F.
 PrismC:  IPart=    17 DynPar=F LinDyn=F Incr=           1 UseFst=F UseS4=T ISplat=1.
 PrismC:  IPart=    16 DynPar=F LinDyn=F Incr=           1 UseFst=F UseS4=T ISplat=1.
 PrismC was handed     8387690 working-precision words and    10 shell-pairs
 PrismC:  IPart=    24 DynPar=F LinDyn=F Incr=           1 UseFst=F UseS4=T ISplat=1.
 PrismC was handed     8387690 working-precision words and    10 shell-pairs
 PrismC was handed     8387690 working-precision words and    10 shell-pairs
 CoulSu:  IPart=    4 IPartR=    4 CPU=   -1 GPU=   -1.
 PrismC was handed     8387690 working-precision words and    10 shell-pairs
 CoulSu:  IPart=   14 IPartR=   14 CPU=   -1 GPU=   -1.
 Enter PrismC:  IPart=  4 JobTyp=20 DoJE=F Cont=F.
 CoulSu:  IPart=   20 IPartR=   20 CPU=   -1 GPU=   -1.
 Enter PrismC:  IPart= 14 JobTyp=20 DoJE=F Cont=F.
 Enter PrismC:  IPart= 20 JobTyp=20 DoJE=F Cont=F.
 PrismC:  IPart=     4 DynPar=F LinDyn=F Incr=           1 UseFst=F UseS4=T ISplat=1.
 PrismC:  IPart=    14 DynPar=F LinDyn=F Incr=           1 UseFst=F UseS4=T ISplat=1.
 PrismC was handed     8387690 working-precision words and    10 shell-pairs
 CoulSu:  IPart=    2 IPartR=    2 CPU=   -1 GPU=   -1.
 PrismC was handed     8387690 working-precision words and    10 shell-pairs
 CoulSu:  IPart=    7 IPartR=    7 CPU=   -1 GPU=   -1.
 Enter PrismC:  IPart=  2 JobTyp=20 DoJE=F Cont=F.
 PrismC:  IPart=    20 DynPar=F LinDyn=F Incr=           1 UseFst=F UseS4=T ISplat=1.
 PrismC was handed     8387690 working-precision words and    10 shell-pairs
 Enter PrismC:  IPart=  7 JobTyp=20 DoJE=F Cont=F.
 CoulSu:  IPart=   28 IPartR=   28 CPU=   -1 GPU=   -1.
 PrismC:  IPart=     2 DynPar=F LinDyn=F Incr=           1 UseFst=F UseS4=T ISplat=1.
 PrismC was handed     8387690 working-precision words and    10 shell-pairs
 CoulSu:  IPart=   12 IPartR=   12 CPU=   -1 GPU=   -1.
 Enter PrismC:  IPart= 28 JobTyp=20 DoJE=F Cont=F.
 CoulSu:  IPart=   18 IPartR=   18 CPU=   -1 GPU=   -1.
 Enter PrismC:  IPart= 12 JobTyp=20 DoJE=F Cont=F.
 Enter PrismC:  IPart= 18 JobTyp=20 DoJE=F Cont=F.
 CoulSu:  IPart=   23 IPartR=   23 CPU=   -1 GPU=   -1.
 PrismC:  IPart=     7 DynPar=F LinDyn=F Incr=           1 UseFst=F UseS4=T ISplat=1.
 PrismC was handed     8387690 working-precision words and    10 shell-pairs
 Enter PrismC:  IPart= 23 JobTyp=20 DoJE=F Cont=F.
 CoulSu:  IPart=   26 IPartR=   26 CPU=   -1 GPU=   -1.
 PrismC:  IPart=    12 DynPar=F LinDyn=F Incr=           1 UseFst=F UseS4=T ISplat=1.
 Enter PrismC:  IPart= 26 JobTyp=20 DoJE=F Cont=F.
 PrismC was handed     8387690 working-precision words and    10 shell-pairs
 CoulSu:  IPart=   22 IPartR=   22 CPU=   -1 GPU=   -1.
 PrismC:  IPart=    28 DynPar=F LinDyn=F Incr=           1 UseFst=F UseS4=T ISplat=1.
 PrismC was handed     8387690 working-precision words and    10 shell-pairs
 Enter PrismC:  IPart= 22 JobTyp=20 DoJE=F Cont=F.
 PrismC:  IPart=    26 DynPar=F LinDyn=F Incr=           1 UseFst=F UseS4=T ISplat=1.
 PrismC was handed     8387690 working-precision words and    10 shell-pairs
 PrismC:  IPart=    18 DynPar=F LinDyn=F Incr=           1 UseFst=F UseS4=T ISplat=1.
 PrismC was handed     8387690 working-precision words and    10 shell-pairs
 PrismC:  IPart=    22 DynPar=F LinDyn=F Incr=           1 UseFst=F UseS4=T ISplat=1.
 PrismC was handed     8387690 working-precision words and    10 shell-pairs
 PrismC:  IPart=    23 DynPar=F LinDyn=F Incr=           1 UseFst=F UseS4=T ISplat=1.
 PrismC was handed     8387690 working-precision words and    10 shell-pairs
 CoulSu:  IPart=   29 IPartR=   29 CPU=   -1 GPU=   -1.
 CoulSu:  IPart=    5 IPartR=    5 CPU=   -1 GPU=   -1.
 Enter PrismC:  IPart= 29 JobTyp=20 DoJE=F Cont=F.
 Enter PrismC:  IPart=  5 JobTyp=20 DoJE=F Cont=F.
 PrismC:  IPart=    29 DynPar=F LinDyn=F Incr=           1 UseFst=F UseS4=T ISplat=1.
 PrismC was handed     8387690 working-precision words and    10 shell-pairs
 CoulSu:  IPart=    8 IPartR=    8 CPU=   -1 GPU=   -1.
 PrismC:  IPart=     5 DynPar=F LinDyn=F Incr=           1 UseFst=F UseS4=T ISplat=1.
 PrismC was handed     8387690 working-precision words and    10 shell-pairs
 Enter PrismC:  IPart=  8 JobTyp=20 DoJE=F Cont=F.
 PrismC:  IPart=     8 DynPar=F LinDyn=F Incr=           1 UseFst=F UseS4=T ISplat=1.
 PrismC was handed     8387690 working-precision words and    10 shell-pairs
 IPart=  0 NShTot=           6 NShNF=           6 NShFF=           0 MinMC=      96
           NShCPU=           6 NBCPU=           6 AvBCPU=         1.0
           NShGPU=           0 NBGPU=           0 AvBGPU=         0.0
 CoulSu-ThDecC:  IPartSL=    0    0 NPrtUSL=   32    1 IThBeg=    0 IThEnd=   31 CPU=   -1 GPU=   -1 NThAct=   32.
 IPart=  1 NShTot=           3 NShNF=           3 NShFF=           0 MinMC=      96
           NShCPU=           3 NBCPU=           3 AvBCPU=         1.0
           NShGPU=           0 NBGPU=           0 AvBGPU=         0.0
 CoulSu-ThDecC:  IPartSL=    1    0 NPrtUSL=   32    1 IThBeg=    0 IThEnd=   31 CPU=   -1 GPU=   -1 NThAct=   31.
 IPart= 19 NShTot=           0 NShNF=           0 NShFF=           0 MinMC=      96
           NShCPU=           0 NBCPU=           0 AvBCPU=         0.0
           NShGPU=           0 NBGPU=           0 AvBGPU=         0.0
 CoulSu-ThDecC:  IPartSL=   19    0 NPrtUSL=   32    1 IThBeg=    0 IThEnd=   31 CPU=   -1 GPU=   -1 NThAct=   30.
 IPart= 10 NShTot=           3 NShNF=           3 NShFF=           0 MinMC=      96
           NShCPU=           3 NBCPU=           3 AvBCPU=         1.0
           NShGPU=           0 NBGPU=           0 AvBGPU=         0.0
 IPart= 11 NShTot=           2 NShNF=           2 NShFF=           0 MinMC=      96
           NShCPU=           2 NBCPU=           2 AvBCPU=         1.0
           NShGPU=           0 NBGPU=           0 AvBGPU=         0.0
 CoulSu-ThDecC:  IPartSL=   10    0 NPrtUSL=   32    1 IThBeg=    0 IThEnd=   31 CPU=   -1 GPU=   -1 NThAct=   29.
 CoulSu-ThDecC:  IPartSL=   11    0 NPrtUSL=   32    1 IThBeg=    0 IThEnd=   31 CPU=   -1 GPU=   -1 NThAct=   28.
 IPart= 21 NShTot=           0 NShNF=           0 NShFF=           0 MinMC=      96
           NShCPU=           0 NBCPU=           0 AvBCPU=         0.0
           NShGPU=           0 NBGPU=           0 AvBGPU=         0.0
 IPart= 13 NShTot=           1 NShNF=           1 NShFF=           0 MinMC=      96
           NShCPU=           1 NBCPU=           1 AvBCPU=         1.0
           NShGPU=           0 NBGPU=           0 AvBGPU=         0.0
 IPart=  3 NShTot=           5 NShNF=           5 NShFF=           0 MinMC=      96
           NShCPU=           5 NBCPU=           5 AvBCPU=         1.0
           NShGPU=           0 NBGPU=           0 AvBGPU=         0.0
 CoulSu-ThDecC:  IPartSL=   21    0 NPrtUSL=   32    1 IThBeg=    0 IThEnd=   31 CPU=   -1 GPU=   -1 NThAct=   27.
 CoulSu-ThDecC:  IPartSL=   13    0 NPrtUSL=   32    1 IThBeg=    0 IThEnd=   31 CPU=   -1 GPU=   -1 NThAct=   26.
 CoulSu-ThDecC:  IPartSL=    3    0 NPrtUSL=   32    1 IThBeg=    0 IThEnd=   31 CPU=   -1 GPU=   -1 NThAct=   25.
 IPart= 30 NShTot=           0 NShNF=           0 NShFF=           0 MinMC=      96
           NShCPU=           0 NBCPU=           0 AvBCPU=         0.0
           NShGPU=           0 NBGPU=           0 AvBGPU=         0.0
 CoulSu-ThDecC:  IPartSL=   30    0 NPrtUSL=   32    1 IThBeg=    0 IThEnd=   31 CPU=   -1 GPU=   -1 NThAct=   24.
 IPart= 31 NShTot=           0 NShNF=           0 NShFF=           0 MinMC=      96
           NShCPU=           0 NBCPU=           0 AvBCPU=         0.0
           NShGPU=           0 NBGPU=           0 AvBGPU=         0.0
 CoulSu-ThDecC:  IPartSL=   31    0 NPrtUSL=   32    1 IThBeg=    0 IThEnd=   31 CPU=   -1 GPU=   -1 NThAct=   23.
 IPart= 25 NShTot=           0 NShNF=           0 NShFF=           0 MinMC=      96
           NShCPU=           0 NBCPU=           0 AvBCPU=         0.0
           NShGPU=           0 NBGPU=           0 AvBGPU=         0.0
 CoulSu-ThDecC:  IPartSL=   25    0 NPrtUSL=   32    1 IThBeg=    0 IThEnd=   31 CPU=   -1 GPU=   -1 NThAct=   22.
 IPart= 27 NShTot=           0 NShNF=           0 NShFF=           0 MinMC=      96
           NShCPU=           0 NBCPU=           0 AvBCPU=         0.0
           NShGPU=           0 NBGPU=           0 AvBGPU=         0.0
 CoulSu-ThDecC:  IPartSL=   27    0 NPrtUSL=   32    1 IThBeg=    0 IThEnd=   31 CPU=   -1 GPU=   -1 NThAct=   21.
 IPart=  9 NShTot=           3 NShNF=           3 NShFF=           0 MinMC=      96
           NShCPU=           3 NBCPU=           3 AvBCPU=         1.0
           NShGPU=           0 NBGPU=           0 AvBGPU=         0.0
 CoulSu-ThDecC:  IPartSL=    9    0 NPrtUSL=   32    1 IThBeg=    0 IThEnd=   31 CPU=   -1 GPU=   -1 NThAct=   20.
 IPart= 17 NShTot=           0 NShNF=           0 NShFF=           0 MinMC=      96
           NShCPU=           0 NBCPU=           0 AvBCPU=         0.0
           NShGPU=           0 NBGPU=           0 AvBGPU=         0.0
 CoulSu-ThDecC:  IPartSL=   17    0 NPrtUSL=   32    1 IThBeg=    0 IThEnd=   31 CPU=   -1 GPU=   -1 NThAct=   19.
 IPart=  7 NShTot=           5 NShNF=           5 NShFF=           0 MinMC=      96
           NShCPU=           5 NBCPU=           5 AvBCPU=         1.0
           NShGPU=           0 NBGPU=           0 AvBGPU=         0.0
 CoulSu-ThDecC:  IPartSL=    7    0 NPrtUSL=   32    1 IThBeg=    0 IThEnd=   31 CPU=   -1 GPU=   -1 NThAct=   18.
 IPart= 16 NShTot=           0 NShNF=           0 NShFF=           0 MinMC=      96
           NShCPU=           0 NBCPU=           0 AvBCPU=         0.0
           NShGPU=           0 NBGPU=           0 AvBGPU=         0.0
 CoulSu-ThDecC:  IPartSL=   16    0 NPrtUSL=   32    1 IThBeg=    0 IThEnd=   31 CPU=   -1 GPU=   -1 NThAct=   17.
 IPart= 15 NShTot=           1 NShNF=           1 NShFF=           0 MinMC=      96
           NShCPU=           1 NBCPU=           1 AvBCPU=         1.0
           NShGPU=           0 NBGPU=           0 AvBGPU=         0.0
 CoulSu-ThDecC:  IPartSL=   15    0 NPrtUSL=   32    1 IThBeg=    0 IThEnd=   31 CPU=   -1 GPU=   -1 NThAct=   16.
 IPart= 20 NShTot=           0 NShNF=           0 NShFF=           0 MinMC=      96
           NShCPU=           0 NBCPU=           0 AvBCPU=         0.0
           NShGPU=           0 NBGPU=           0 AvBGPU=         0.0
 IPart=  2 NShTot=           3 NShNF=           3 NShFF=           0 MinMC=      96
           NShCPU=           3 NBCPU=           3 AvBCPU=         1.0
           NShGPU=           0 NBGPU=           0 AvBGPU=         0.0
 IPart= 28 NShTot=           0 NShNF=           0 NShFF=           0 MinMC=      96
           NShCPU=           0 NBCPU=           0 AvBCPU=         0.0
           NShGPU=           0 NBGPU=           0 AvBGPU=         0.0
 CoulSu-ThDecC:  IPartSL=   20    0 NPrtUSL=   32    1 IThBeg=    0 IThEnd=   31 CPU=   -1 GPU=   -1 NThAct=   15.
 CoulSu-ThDecC:  IPartSL=   28    0 NPrtUSL=   32    1 IThBeg=    0 IThEnd=   31 CPU=   -1 GPU=   -1 NThAct=   14.
 IPart= 14 NShTot=           1 NShNF=           1 NShFF=           0 MinMC=      96
           NShCPU=           1 NBCPU=           1 AvBCPU=         1.0
           NShGPU=           0 NBGPU=           0 AvBGPU=         0.0
 CoulSu-ThDecC:  IPartSL=    2    0 NPrtUSL=   32    1 IThBeg=    0 IThEnd=   31 CPU=   -1 GPU=   -1 NThAct=   13.
 CoulSu-ThDecC:  IPartSL=   14    0 NPrtUSL=   32    1 IThBeg=    0 IThEnd=   31 CPU=   -1 GPU=   -1 NThAct=   12.
 IPart=  6 NShTot=           5 NShNF=           5 NShFF=           0 MinMC=      96
           NShCPU=           5 NBCPU=           5 AvBCPU=         1.0
           NShGPU=           0 NBGPU=           0 AvBGPU=         0.0
 CoulSu-ThDecC:  IPartSL=    6    0 NPrtUSL=   32    1 IThBeg=    0 IThEnd=   31 CPU=   -1 GPU=   -1 NThAct=   11.
 IPart= 26 NShTot=           0 NShNF=           0 NShFF=           0 MinMC=      96
           NShCPU=           0 NBCPU=           0 AvBCPU=         0.0
           NShGPU=           0 NBGPU=           0 AvBGPU=         0.0
 CoulSu-ThDecC:  IPartSL=   26    0 NPrtUSL=   32    1 IThBeg=    0 IThEnd=   31 CPU=   -1 GPU=   -1 NThAct=   10.
 IPart= 29 NShTot=           0 NShNF=           0 NShFF=           0 MinMC=      96
           NShCPU=           0 NBCPU=           0 AvBCPU=         0.0
           NShGPU=           0 NBGPU=           0 AvBGPU=         0.0
 IPart=  5 NShTot=           4 NShNF=           4 NShFF=           0 MinMC=      96
           NShCPU=           4 NBCPU=           4 AvBCPU=         1.0
           NShGPU=           0 NBGPU=           0 AvBGPU=         0.0
 IPart=  4 NShTot=           6 NShNF=           6 NShFF=           0 MinMC=      96
           NShCPU=           6 NBCPU=           6 AvBCPU=         1.0
           NShGPU=           0 NBGPU=           0 AvBGPU=         0.0
 IPart= 24 NShTot=           0 NShNF=           0 NShFF=           0 MinMC=      96
           NShCPU=           0 NBCPU=           0 AvBCPU=         0.0
           NShGPU=           0 NBGPU=           0 AvBGPU=         0.0
 CoulSu-ThDecC:  IPartSL=   29    0 NPrtUSL=   32    1 IThBeg=    0 IThEnd=   31 CPU=   -1 GPU=   -1 NThAct=    9.
 CoulSu-ThDecC:  IPartSL=   24    0 NPrtUSL=   32    1 IThBeg=    0 IThEnd=   31 CPU=   -1 GPU=   -1 NThAct=    8.
 CoulSu-ThDecC:  IPartSL=    4    0 NPrtUSL=   32    1 IThBeg=    0 IThEnd=   31 CPU=   -1 GPU=   -1 NThAct=    7.
 CoulSu-ThDecC:  IPartSL=    5    0 NPrtUSL=   32    1 IThBeg=    0 IThEnd=   31 CPU=   -1 GPU=   -1 NThAct=    6.
 IPart= 23 NShTot=           0 NShNF=           0 NShFF=           0 MinMC=      96
           NShCPU=           0 NBCPU=           0 AvBCPU=         0.0
           NShGPU=           0 NBGPU=           0 AvBGPU=         0.0
 CoulSu-ThDecC:  IPartSL=   23    0 NPrtUSL=   32    1 IThBeg=    0 IThEnd=   31 CPU=   -1 GPU=   -1 NThAct=    5.
 IPart= 12 NShTot=           1 NShNF=           1 NShFF=           0 MinMC=      96
           NShCPU=           1 NBCPU=           1 AvBCPU=         1.0
           NShGPU=           0 NBGPU=           0 AvBGPU=         0.0
 CoulSu-ThDecC:  IPartSL=   12    0 NPrtUSL=   32    1 IThBeg=    0 IThEnd=   31 CPU=   -1 GPU=   -1 NThAct=    4.
 IPart=  8 NShTot=           6 NShNF=           6 NShFF=           0 MinMC=      96
           NShCPU=           6 NBCPU=           6 AvBCPU=         1.0
           NShGPU=           0 NBGPU=           0 AvBGPU=         0.0
 CoulSu-ThDecC:  IPartSL=    8    0 NPrtUSL=   32    1 IThBeg=    0 IThEnd=   31 CPU=   -1 GPU=   -1 NThAct=    3.
 IPart= 18 NShTot=           0 NShNF=           0 NShFF=           0 MinMC=      96
           NShCPU=           0 NBCPU=           0 AvBCPU=         0.0
           NShGPU=           0 NBGPU=           0 AvBGPU=         0.0
 CoulSu-ThDecC:  IPartSL=   18    0 NPrtUSL=   32    1 IThBeg=    0 IThEnd=   31 CPU=   -1 GPU=   -1 NThAct=    2.
 IPart= 22 NShTot=           0 NShNF=           0 NShFF=           0 MinMC=      96
           NShCPU=           0 NBCPU=           0 AvBCPU=         0.0
           NShGPU=           0 NBGPU=           0 AvBGPU=         0.0
 CoulSu-ThDecC:  IPartSL=   22    0 NPrtUSL=   32    1 IThBeg=    0 IThEnd=   31 CPU=   -1 GPU=   -1 NThAct=    1.
 CoulSu:  NxtVal=             33 LenVP=        8387691 MinMC=      96.
 Two-electron integral symmetry not used.
          MDV=     268435456 using IRadAn=       5.
          Solving linear equations separately, MaxMat=       0.
 Alpha MO Fock matrix:
                1             2             3             4 
      1 -0.442473D+00
      2  0.000000D+00  0.115953D+00
      3  0.000000D+00  0.000000D+00  0.604526D+00
      4  0.000000D+00  0.000000D+00  0.000000D+00  0.114161D+01
 No preconditioning shift for CPHF, IUsSft=     0.
 MapCor: 
 MapA2R: 
              1            2
     1            1            4
     2            2            5
     3            3            6
 MapR2A: 
          There are     1 degrees of freedom in the 1st order CPHF.  IDoFFX=0 NUNeed=     1.
 ShPair: Thresh= 1.00D-14 NBox=     0 BxSize= 0.00D+00 RnKept= 1.40D+00
         NSMCal=                   10 NSMKep=                  10
 Pruned (  99, 590) grid will be used in numerical quadrature.
 NFPSXC: from=DFTMem NMatDP=   1 NFPS=     8 NFPSI=     3 NFPS2=     4 MaxFPS=  1300 MaxFTr=  1300
 NFPSXC: from=AlAXNP NMatDP=   1 NFPS=     8 NFPSI=     3 NFPS2=     4 MaxFPS=  1300 MaxFTr=  1300
 AlAXAO:  NMat=     1 NPMax=   32 NPMax1=   32 MaxMat=     0 Max3X=F NPAlg=2.
 AlAXAO:  IPAlg=1 IRound=1 NPass=     0 NDo=     1 NDoOld=    -1
 Pruned (  99, 590) grid will be used in numerical quadrature.
 NFPSXC: from=DFTMem NMatDP=   1 NFPS=     8 NFPSI=     3 NFPS2=     4 MaxFPS=  1300 MaxFTr=  1300
 NFPSXC: from=AlAXNP NMatDP=   1 NFPS=     8 NFPSI=     3 NFPS2=     4 MaxFPS=  1300 MaxFTr=  1300
 AlAXAO:  IPAlg=1 IRound=1 NPass=     0 NDo=     1 NProcU=   32 NProcO=   -1 old MaxNP=    0 NPMax1=   32.
 AlAXAO:  Raw MaxNP=     0 NRnd1=    32
 AlAXAO:  NMat=     1 NPass=     1 NDo=     1.
 Pruned (  99, 590) grid will be used in numerical quadrature.
 NFPSXC: from=DFTMem NMatDP=   1 NFPS=     8 NFPSI=     3 NFPS2=     4 MaxFPS=  1300 MaxFTr=  1300
 NFPSXC: from=AlAXNP NMatDP=   1 NFPS=     8 NFPSI=     3 NFPS2=     4 MaxFPS=  1300 MaxFTr=  1300
 TermDP is doing NDone=     0 NCore=     1 NCoreS=     1.
 FoF2E:  PMaxA= 6.39D+00S
 DA number   1 in FoFMem:
                1             2             3             4 
      1 -0.207990D+00
      2  0.980310D-01  0.610258D+01
      3 -0.232296D+00 -0.452978D+00 -0.207990D+00
      4 -0.452978D+00 -0.638873D+01  0.980310D-01  0.610258D+01
 FoFMem:  NOp1=  1 NOp2=  1 NOpUse=  1 NSOp=  1 NMatL=     1 DoSAO=F
 IM=     1 IB=1 DotPA=         30.96882322
 P:
                1             2             3             4 
      1 -0.415980D+00
      2  0.392124D+00  0.122052D+02
      3 -0.929183D+00 -0.181191D+01 -0.415980D+00
      4 -0.181191D+01 -0.255549D+02  0.392124D+00  0.122052D+02
 FoFMem:  NOp1=  1 NOp2=  1 NOpUse=  1 NSOp=  1 NMatL=     1 DoSAO=F
 IM=     1 IB=1 DotFA=          1.65562546
 F:
                1             2             3             4 
      1 -0.938189D+00
      2 -0.418364D+00 -0.333235D+00
      3 -0.370314D+00 -0.305689D+00 -0.938189D+00
      4 -0.305689D+00 -0.290733D+00 -0.418364D+00 -0.333235D+00
 FoF2E:  FMaxA= 9.38D-01S
 ChkPGP:  NMat=1 NMatS=1 NMatT=0
 EA= 0.599794622712      0.00000000000      0.00000000000      0.00000000000    
 EB= 0.599794622712      0.00000000000      0.00000000000      0.00000000000    
 ETotA= 0.599794622712     ETotB= 0.599794622712    
 1/2 <PG(P)>=           0.599794622712
 Pruned (  99, 590) grid will be used in numerical quadrature.
 CkSvGd:  ISavGI=        -1 IRadAn=       5 IRASav=       5 ISavGd=        -1.
 NFPSXC: from=DFTMem NMatDP=   1 NFPS=     8 NFPSI=     3 NFPS2=     4 MaxFPS=  1300 MaxFTr=  1300
 NFPSXC: from=CalDSu NMatDP=   1 NFPS=     8 NFPSI=     3 NFPS2=     4 MaxFPS=  1300 MaxFTr=  1300
 CalDSu-InSpLW:  IPartL=    0 NPrtUS=   32 NPrtUL=    1 DoSpLW=F IThBeg=    0 IThEnd=   31 NThAct=   32.
 CalDSu:  NPrtUS=  32 ThrOK=T IAlg=1 NPAlg=2 DoDPD=T LenP=          10 LenD1P=            10 GPUOK=T
          ISkipM=0 DoSpLW=F IThBeg=    0 IThEnd=   31.
 CalDFT:  XC contribution to CPKS
 CalDFT:  XC contribution to CPKS
 CalDFT:  XC contribution to CPKS
 Exchange:  PBE  -  Correlation:  -PBE
 CalDFT:  XC contribution to CPKS
 CalDFT:  XC contribution to CPKS
 CalDFT:  XC contribution to CPKS
 CalDFT:  XC contribution to CPKS
 CalDFT:  XC contribution to CPKS
 CalDFT:  XC contribution to CPKS
 CalDFT:  XC contribution to CPKS
 CalDFT:  XC contribution to CPKS
 Exchange:  PBE  -  Correlation:  -PBE
 Exchange:  PBE  -  Correlation:  -PBE
 Exchange:  PBE  -  Correlation:  -PBE
 Exchange:  PBE  -  Correlation:  -PBE
 IPart=  5 IRanGd=          0 ScrnBf=T ScrnGd=T RCrit=4.00D+00 DoMicB=T.
 Exchange:  PBE  -  Correlation:  -PBE
 IPart= 13 IRanGd=          0 ScrnBf=T ScrnGd=T RCrit=4.00D+00 DoMicB=T.
 NFPSXC: from=Quad1 NMatDP=   1 NFPS=     8 NFPSI=     3 NFPS2=     4 MaxFPS=  1300 MaxFTr=  1300
 NFPSXC: from=Quad1 NMatDP=   1 NFPS=     8 NFPSI=     3 NFPS2=     4 MaxFPS=  1300 MaxFTr=  1300
 Exchange:  PBE  -  Correlation:  -PBE
 IPart= 21 IRanGd=          0 ScrnBf=T ScrnGd=T RCrit=4.00D+00 DoMicB=T.
 NFPSXC: from=Quad1 NMatDP=   1 NFPS=     8 NFPSI=     3 NFPS2=     4 MaxFPS=  1300 MaxFTr=  1300
 CalDFT:  XC contribution to CPKS
 Exchange:  PBE  -  Correlation:  -PBE
 CalDFT:  XC contribution to CPKS
 IPart= 25 IRanGd=          0 ScrnBf=T ScrnGd=T RCrit=4.00D+00 DoMicB=T.
 CalDFT:  XC contribution to CPKS
 CalDFT:  XC contribution to CPKS
 Exchange:  PBE  -  Correlation:  -PBE
 IPart= 15 IRanGd=          0 ScrnBf=T ScrnGd=T RCrit=4.00D+00 DoMicB=T.
 NFPSXC: from=Quad1 NMatDP=   1 NFPS=     8 NFPSI=     3 NFPS2=     4 MaxFPS=  1300 MaxFTr=  1300
 NFPSXC: from=Quad1 NMatDP=   1 NFPS=     8 NFPSI=     3 NFPS2=     4 MaxFPS=  1300 MaxFTr=  1300
 CutRad = 1000.00    CtRdIn =    0.00    XCrit =  15.00   ICut = 0
 CutRad = 1000.00    CtRdIn =    0.00    XCrit =  15.00   ICut = 0
 IPart= 23 IRanGd=          0 ScrnBf=T ScrnGd=T RCrit=4.00D+00 DoMicB=T.
 NFPSXC: from=Quad1 NMatDP=   1 NFPS=     8 NFPSI=     3 NFPS2=     4 MaxFPS=  1300 MaxFTr=  1300
 CutRad = 1000.00    CtRdIn =    0.00    XCrit =  15.00   ICut = 0
 CutRad = 1000.00    CtRdIn =    0.00    XCrit =  15.00   ICut = 0
 Exchange:  PBE  -  Correlation:  -PBE
 IPart=  9 IRanGd=          0 ScrnBf=T ScrnGd=T RCrit=4.00D+00 DoMicB=T.
 NFPSXC: from=Quad1 NMatDP=   1 NFPS=     8 NFPSI=     3 NFPS2=     4 MaxFPS=  1300 MaxFTr=  1300
 CutRad = 1000.00    CtRdIn =    0.00    XCrit =  15.00   ICut = 0
 CalDFT:  XC contribution to CPKS
 Exchange:  PBE  -  Correlation:  -PBE
 CalDFT:  XC contribution to CPKS
 Pruned (  99, 590) grid will be used in numerical quadrature.
 Pruned (  99, 590) grid will be used in numerical quadrature.
 Pruned (  99, 590) grid will be used in numerical quadrature.
 CalDFT:  XC contribution to CPKS
 CutRad = 1000.00    CtRdIn =    0.00    XCrit =  15.00   ICut = 0
 IPart= 16 IRanGd=          0 ScrnBf=T ScrnGd=T RCrit=4.00D+00 DoMicB=T.
 NFPSXC: from=Quad1 NMatDP=   1 NFPS=     8 NFPSI=     3 NFPS2=     4 MaxFPS=  1300 MaxFTr=  1300
 Exchange:  PBE  -  Correlation:  -PBE
 Pruned (  99, 590) grid will be used in numerical quadrature.
 CalDFT:  XC contribution to CPKS
 IPart= 13 Atom number   1 atomic number  1 has       21654 grid points.
 CalDFT:  XC contribution to CPKS
 Exchange:  PBE  -  Correlation:  -PBE
 Exchange:  PBE  -  Correlation:  -PBE
 CalDFT:  XC contribution to CPKS
 CalDFT:  XC contribution to CPKS
 CutRad = 1000.00    CtRdIn =    0.00    XCrit =  15.00   ICut = 0
 CalDFT:  XC contribution to CPKS
 IPart= 19 IRanGd=          0 ScrnBf=T ScrnGd=T RCrit=4.00D+00 DoMicB=T.
 NFPSXC: from=Quad1 NMatDP=   1 NFPS=     8 NFPSI=     3 NFPS2=     4 MaxFPS=  1300 MaxFTr=  1300
 Exchange:  PBE  -  Correlation:  -PBE
 IPart= 29 IRanGd=          0 ScrnBf=T ScrnGd=T RCrit=4.00D+00 DoMicB=T.
 NFPSXC: from=Quad1 NMatDP=   1 NFPS=     8 NFPSI=     3 NFPS2=     4 MaxFPS=  1300 MaxFTr=  1300
 IPart= 24 IRanGd=          0 ScrnBf=T ScrnGd=T RCrit=4.00D+00 DoMicB=T.
 NFPSXC: from=Quad1 NMatDP=   1 NFPS=     8 NFPSI=     3 NFPS2=     4 MaxFPS=  1300 MaxFTr=  1300
 Exchange:  PBE  -  Correlation:  -PBE
 CutRad = 1000.00    CtRdIn =    0.00    XCrit =  15.00   ICut = 0
 Exchange:  PBE  -  Correlation:  -PBE
 IPart= 21 Atom number   1 atomic number  1 has       21654 grid points.
 At   1 B   6: 100.0% Sh 100.0 % Bf    1 runs, min    4 max    4 av    4.0
 IPart= 13 Atom   1 batch    6 overlaps    2 atoms,     4 shells and     0 DB shells.   NGrid=      1208
 Pruned (  99, 590) grid will be used in numerical quadrature.
 IPart=  9 Atom number   1 atomic number  1 has       21654 grid points.
 IPart=  5 Atom number   1 atomic number  1 has       21654 grid points.
 At   1 B   5: 100.0% Sh 100.0 % Bf    1 runs, min    4 max    4 av    4.0
 IPart=  9 Atom   1 batch    5 overlaps    2 atoms,     4 shells and     0 DB shells.   NGrid=       776
 At   1 B   7: 100.0% Sh 100.0 % Bf    1 runs, min    4 max    4 av    4.0
 IPart=  5 Atom   1 batch    7 overlaps    2 atoms,     4 shells and     0 DB shells.   NGrid=      1208
 CutRad = 1000.00    CtRdIn =    0.00    XCrit =  15.00   ICut = 0
 CalDFT:  XC contribution to CPKS
 Exchange:  PBE  -  Correlation:  -PBE
 CalDFT:  XC contribution to CPKS
 Exchange:  PBE  -  Correlation:  -PBE
 IPart=  8 IRanGd=          0 ScrnBf=T ScrnGd=T RCrit=4.00D+00 DoMicB=T.
 NFPSXC: from=Quad1 NMatDP=   1 NFPS=     8 NFPSI=     3 NFPS2=     4 MaxFPS=  1300 MaxFTr=  1300
 Symmetry reduced   194 angular points to   194 for atom    1.
 IPart= 17 IRanGd=          0 ScrnBf=T ScrnGd=T RCrit=4.00D+00 DoMicB=T.
 NFPSXC: from=Quad1 NMatDP=   1 NFPS=     8 NFPSI=     3 NFPS2=     4 MaxFPS=  1300 MaxFTr=  1300
 Exchange:  PBE  -  Correlation:  -PBE
 IPart= 27 IRanGd=          0 ScrnBf=T ScrnGd=T RCrit=4.00D+00 DoMicB=T.
 NFPSXC: from=Quad1 NMatDP=   1 NFPS=     8 NFPSI=     3 NFPS2=     4 MaxFPS=  1300 MaxFTr=  1300
 CutRad = 1000.00    CtRdIn =    0.00    XCrit =  15.00   ICut = 0
 CalDFT:  XC contribution to CPKS
 CalDFT:  XC contribution to CPKS
 CutRad = 1000.00    CtRdIn =    0.00    XCrit =  15.00   ICut = 0
 CutRad = 1000.00    CtRdIn =    0.00    XCrit =  15.00   ICut = 0
 Exchange:  PBE  -  Correlation:  -PBE
 IPart= 26 IRanGd=          0 ScrnBf=T ScrnGd=T RCrit=4.00D+00 DoMicB=T.
 NFPSXC: from=Quad1 NMatDP=   1 NFPS=     8 NFPSI=     3 NFPS2=     4 MaxFPS=  1300 MaxFTr=  1300
 Exchange:  PBE  -  Correlation:  -PBE
 CalDFT:  XC contribution to CPKS
 Pruned (  99, 590) grid will be used in numerical quadrature.
 Pruned (  99, 590) grid will be used in numerical quadrature.
 CalDFT:  XC contribution to CPKS
 Pruned (  99, 590) grid will be used in numerical quadrature.
 IPart= 19 Atom number   1 atomic number  1 has       21654 grid points.
 IPart= 25 Atom number   1 atomic number  1 has       21654 grid points.
 IPart= 23 Atom number   1 atomic number  1 has       21654 grid points.
 Exchange:  PBE  -  Correlation:  -PBE
 At   1 B   4: 100.0% Sh 100.0 % Bf    1 runs, min    4 max    4 av    4.0
 IPart= 25 Atom   1 batch    4 overlaps    2 atoms,     4 shells and     0 DB shells.   NGrid=       776
 At   1 B   1: 100.0% Sh 100.0 % Bf    1 runs, min    4 max    4 av    4.0
 IPart= 23 Atom   1 batch    1 overlaps    2 atoms,     4 shells and     0 DB shells.   NGrid=       946
 Exchange:  PBE  -  Correlation:  -PBE
 Pruned (  99, 590) grid will be used in numerical quadrature.
 CalDFT:  XC contribution to CPKS
 IPart=  0 IRanGd=          0 ScrnBf=T ScrnGd=T RCrit=4.00D+00 DoMicB=T.
 NFPSXC: from=Quad1 NMatDP=   1 NFPS=     8 NFPSI=     3 NFPS2=     4 MaxFPS=  1300 MaxFTr=  1300
 IPart=  7 IRanGd=          0 ScrnBf=T ScrnGd=T RCrit=4.00D+00 DoMicB=T.
 NFPSXC: from=Quad1 NMatDP=   1 NFPS=     8 NFPSI=     3 NFPS2=     4 MaxFPS=  1300 MaxFTr=  1300
 CutRad = 1000.00    CtRdIn =    0.00    XCrit =  15.00   ICut = 0
 IPart= 17 Atom number   1 atomic number  1 has       21654 grid points.
 Pruned (  99, 590) grid will be used in numerical quadrature.
 Exchange:  PBE  -  Correlation:  -PBE
 IPart= 14 IRanGd=          0 ScrnBf=T ScrnGd=T RCrit=4.00D+00 DoMicB=T.
 NFPSXC: from=Quad1 NMatDP=   1 NFPS=     8 NFPSI=     3 NFPS2=     4 MaxFPS=  1300 MaxFTr=  1300
 IPart= 24 Atom number   1 atomic number  1 has       21654 grid points.
 CutRad = 1000.00    CtRdIn =    0.00    XCrit =  15.00   ICut = 0
 Pruned (  99, 590) grid will be used in numerical quadrature.
 IPart= 28 IRanGd=          0 ScrnBf=T ScrnGd=T RCrit=4.00D+00 DoMicB=T.
 NFPSXC: from=Quad1 NMatDP=   1 NFPS=     8 NFPSI=     3 NFPS2=     4 MaxFPS=  1300 MaxFTr=  1300
 At   1 B  11: 100.0% Sh 100.0 % Bf    1 runs, min    4 max    4 av    4.0
 IPart= 17 Atom   1 batch   11 overlaps    2 atoms,     4 shells and     0 DB shells.   NGrid=      1180
 Symmetry reduced    86 angular points to    86 for atom    1.
 Pruned (  99, 590) grid will be used in numerical quadrature.
 Pruned (  99, 590) grid will be used in numerical quadrature.
 Symmetry reduced   590 angular points to   590 for atom    1.
 IPart= 15 Atom number   1 atomic number  1 has       21654 grid points.
 Exchange:  PBE  -  Correlation:  -PBE
 Pruned (  99, 590) grid will be used in numerical quadrature.
 IPart= 27 Atom number   1 atomic number  1 has       21654 grid points.
 IPart=  0 Atom number   1 atomic number  1 has       21654 grid points.
 At   1 B   3: 100.0% Sh 100.0 % Bf    1 runs, min    4 max    4 av    4.0
 IPart= 15 Atom   1 batch    3 overlaps    2 atoms,     4 shells and     0 DB shells.   NGrid=       946
 Symmetry reduced   302 angular points to   302 for atom    1.
 At   1 B  10: 100.0% Sh 100.0 % Bf    1 runs, min    4 max    4 av    4.0
 IPart= 27 Atom   1 batch   10 overlaps    2 atoms,     4 shells and     0 DB shells.   NGrid=      1180
 IPart=  7 Atom number   1 atomic number  1 has       21654 grid points.
 CutRad = 1000.00    CtRdIn =    0.00    XCrit =  15.00   ICut = 0
 Exchange:  PBE  -  Correlation:  -PBE
 IPart= 30 IRanGd=          0 ScrnBf=T ScrnGd=T RCrit=4.00D+00 DoMicB=T.
 CutRad = 1000.00    CtRdIn =    0.00    XCrit =  15.00   ICut = 0
 CutRad = 1000.00    CtRdIn =    0.00    XCrit =  15.00   ICut = 0
 Pruned (  99, 590) grid will be used in numerical quadrature.
 Symmetry reduced   590 angular points to   590 for atom    1.
 CutRad = 1000.00    CtRdIn =    0.00    XCrit =  15.00   ICut = 0
 Symmetry reduced    86 angular points to    86 for atom    1.
 IPart= 28 Atom number   1 atomic number  1 has       21654 grid points.
 Pruned (  99, 590) grid will be used in numerical quadrature.
 IPart=  1 IRanGd=          0 ScrnBf=T ScrnGd=T RCrit=4.00D+00 DoMicB=T.
 NFPSXC: from=Quad1 NMatDP=   1 NFPS=     8 NFPSI=     3 NFPS2=     4 MaxFPS=  1300 MaxFTr=  1300
 CutRad = 1000.00    CtRdIn =    0.00    XCrit =  15.00   ICut = 0
 Exchange:  PBE  -  Correlation:  -PBE
 IPart=  2 IRanGd=          0 ScrnBf=T ScrnGd=T RCrit=4.00D+00 DoMicB=T.
 NFPSXC: from=Quad1 NMatDP=   1 NFPS=     8 NFPSI=     3 NFPS2=     4 MaxFPS=  1300 MaxFTr=  1300
 Pruned (  99, 590) grid will be used in numerical quadrature.
 Symmetry reduced   194 angular points to   194 for atom    1.
 At   1 B   2: 100.0% Sh 100.0 % Bf    1 runs, min    4 max    4 av    4.0
 IPart= 21 Atom   1 batch    2 overlaps    2 atoms,     4 shells and     0 DB shells.   NGrid=       946
 IPart= 31 IRanGd=          0 ScrnBf=T ScrnGd=T RCrit=4.00D+00 DoMicB=T.
 NFPSXC: from=Quad1 NMatDP=   1 NFPS=     8 NFPSI=     3 NFPS2=     4 MaxFPS=  1300 MaxFTr=  1300
 At   1 B  12: 100.0% Sh 100.0 % Bf    1 runs, min    4 max    4 av    4.0
 IPart= 19 Atom   1 batch   12 overlaps    2 atoms,     4 shells and     0 DB shells.   NGrid=      1180
 At   1 B   9: 100.0% Sh 100.0 % Bf    1 runs, min    4 max    4 av    4.0
 IPart= 24 Atom   1 batch    9 overlaps    2 atoms,     4 shells and     0 DB shells.   NGrid=      1180
 NFPSXC: from=Quad1 NMatDP=   1 NFPS=     8 NFPSI=     3 NFPS2=     4 MaxFPS=  1300 MaxFTr=  1300
 CutRad = 1000.00    CtRdIn =    0.00    XCrit =  15.00   ICut = 0
 Symmetry reduced   590 angular points to   590 for atom    1.
 At   1 B  14: 100.0% Sh 100.0 % Bf    1 runs, min    4 max    4 av    4.0
 IPart=  7 Atom   1 batch   14 overlaps    2 atoms,     4 shells and     0 DB shells.   NGrid=      1180
 Symmetry reduced   590 angular points to   590 for atom    1.
 IPart=  6 IRanGd=          0 ScrnBf=T ScrnGd=T RCrit=4.00D+00 DoMicB=T.
 NFPSXC: from=Quad1 NMatDP=   1 NFPS=     8 NFPSI=     3 NFPS2=     4 MaxFPS=  1300 MaxFTr=  1300
 CalDFT:  XC contribution to CPKS
 Symmetry reduced   590 angular points to   590 for atom    1.
 Pruned (  99, 590) grid will be used in numerical quadrature.
 Pruned (  99, 590) grid will be used in numerical quadrature.
 Exchange:  PBE  -  Correlation:  -PBE
 At   1 B  15: 100.0% Sh 100.0 % Bf    1 runs, min    4 max    4 av    4.0
 IPart= 28 Atom   1 batch   15 overlaps    2 atoms,     4 shells and     0 DB shells.   NGrid=      1180
 CutRad = 1000.00    CtRdIn =    0.00    XCrit =  15.00   ICut = 0
 CalDFT:  XC contribution to CPKS
 IPart= 10 IRanGd=          0 ScrnBf=T ScrnGd=T RCrit=4.00D+00 DoMicB=T.
 NFPSXC: from=Quad1 NMatDP=   1 NFPS=     8 NFPSI=     3 NFPS2=     4 MaxFPS=  1300 MaxFTr=  1300
 CutRad = 1000.00    CtRdIn =    0.00    XCrit =  15.00   ICut = 0
 Exchange:  PBE  -  Correlation:  -PBE
 CutRad = 1000.00    CtRdIn =    0.00    XCrit =  15.00   ICut = 0
 Symmetry reduced   302 angular points to   302 for atom    1.
 IPart= 20 IRanGd=          0 ScrnBf=T ScrnGd=T RCrit=4.00D+00 DoMicB=T.
 Pruned (  99, 590) grid will be used in numerical quadrature.
 IPart= 11 IRanGd=          0 ScrnBf=T ScrnGd=T RCrit=4.00D+00 DoMicB=T.
 NFPSXC: from=Quad1 NMatDP=   1 NFPS=     8 NFPSI=     3 NFPS2=     4 MaxFPS=  1300 MaxFTr=  1300
 CutRad = 1000.00    CtRdIn =    0.00    XCrit =  15.00   ICut = 0
 IPart=  4 IRanGd=          0 ScrnBf=T ScrnGd=T RCrit=4.00D+00 DoMicB=T.
 IPart= 22 IRanGd=          0 ScrnBf=T ScrnGd=T RCrit=4.00D+00 DoMicB=T.
 IPart= 10 Atom number   1 atomic number  1 has       21654 grid points.
 Symmetry reduced    86 angular points to    86 for atom    1.
 IPart= 29 Atom number   1 atomic number  1 has       21654 grid points.
 At   1 B  22:  50.0% Sh  50.0 % Bf    2 runs, min    1 max    1 av    1.0
 IPart= 10 Atom   1 batch   22 overlaps    2 atoms,     2 shells and     0 DB shells.   NGrid=       604
 IPart=  3 IRanGd=          0 ScrnBf=T ScrnGd=T RCrit=4.00D+00 DoMicB=T.
 NFPSXC: from=Quad1 NMatDP=   1 NFPS=     8 NFPSI=     3 NFPS2=     4 MaxFPS=  1300 MaxFTr=  1300
 At   1 B  13: 100.0% Sh 100.0 % Bf    1 runs, min    4 max    4 av    4.0
 IPart=  0 Atom   1 batch   13 overlaps    2 atoms,     4 shells and     0 DB shells.   NGrid=      1180
 Pruned (  99, 590) grid will be used in numerical quadrature.
 IPart=  1 Atom number   1 atomic number  1 has       21654 grid points.
 Pruned (  99, 590) grid will be used in numerical quadrature.
 Exchange:  PBE  -  Correlation:  -PBE
 Symmetry reduced   302 angular points to   302 for atom    1.
 IPart= 16 Atom number   1 atomic number  1 has       21654 grid points.
 Pruned (  99, 590) grid will be used in numerical quadrature.
 CutRad = 1000.00    CtRdIn =    0.00    XCrit =  15.00   ICut = 0
 IPart= 14 Atom number   1 atomic number  1 has       21654 grid points.
 Symmetry reduced   590 angular points to   590 for atom    1.
 IPart= 18 IRanGd=          0 ScrnBf=T ScrnGd=T RCrit=4.00D+00 DoMicB=T.
 NFPSXC: from=Quad1 NMatDP=   1 NFPS=     8 NFPSI=     3 NFPS2=     4 MaxFPS=  1300 MaxFTr=  1300
 CutRad = 1000.00    CtRdIn =    0.00    XCrit =  15.00   ICut = 0
 At   1 B  18: 100.0% Sh 100.0 % Bf    1 runs, min    4 max    4 av    4.0
 IPart= 14 Atom   1 batch   18 overlaps    2 atoms,     4 shells and     0 DB shells.   NGrid=       604
 IPart=  2 Atom number   1 atomic number  1 has       21654 grid points.
 Pruned (  99, 590) grid will be used in numerical quadrature.
 At   1 B  20: 100.0% Sh 100.0 % Bf    1 runs, min    4 max    4 av    4.0
 IPart=  2 Atom   1 batch   20 overlaps    2 atoms,     4 shells and     0 DB shells.   NGrid=       604
 IPart= 11 Atom number   1 atomic number  1 has       21654 grid points.
 NFPSXC: from=Quad1 NMatDP=   1 NFPS=     8 NFPSI=     3 NFPS2=     4 MaxFPS=  1300 MaxFTr=  1300
 Symmetry reduced   302 angular points to   302 for atom    1.
 CutRad = 1000.00    CtRdIn =    0.00    XCrit =  15.00   ICut = 0
 CutRad = 1000.00    CtRdIn =    0.00    XCrit =  15.00   ICut = 0
 Pruned (  99, 590) grid will be used in numerical quadrature.
 Symmetry reduced   302 angular points to   302 for atom    1.
 IPart=  6 Atom number   1 atomic number  1 has       21654 grid points.
 Pruned (  99, 590) grid will be used in numerical quadrature.
 Pruned (  99, 590) grid will be used in numerical quadrature.
 Pruned (  99, 590) grid will be used in numerical quadrature.
 IPart= 31 Atom number   1 atomic number  1 has       21654 grid points.
 IPart= 26 Atom number   1 atomic number  1 has       21654 grid points.
 NFPSXC: from=Quad1 NMatDP=   1 NFPS=     8 NFPSI=     3 NFPS2=     4 MaxFPS=  1300 MaxFTr=  1300
 CutRad = 1000.00    CtRdIn =    0.00    XCrit =  15.00   ICut = 0
 At   1 B  19: 100.0% Sh 100.0 % Bf    1 runs, min    4 max    4 av    4.0
 IPart=  1 Atom   1 batch   19 overlaps    2 atoms,     4 shells and     0 DB shells.   NGrid=       604
 At   1 B  17: 100.0% Sh 100.0 % Bf    1 runs, min    4 max    4 av    4.0
 IPart= 16 Atom   1 batch   17 overlaps    2 atoms,     4 shells and     0 DB shells.   NGrid=       604
 IPart=  8 Atom number   1 atomic number  1 has       21654 grid points.
 IPart= 18 Atom number   1 atomic number  1 has       21654 grid points.
 Symmetry reduced   302 angular points to   302 for atom    1.
 Pruned (  99, 590) grid will be used in numerical quadrature.
 Symmetry reduced   302 angular points to   302 for atom    1.
 CutRad = 1000.00    CtRdIn =    0.00    XCrit =  15.00   ICut = 0
 IPart= 30 Atom number   1 atomic number  1 has       21654 grid points.
 IPart= 20 Atom number   1 atomic number  1 has       21654 grid points.
 Exchange:  PBE  -  Correlation:  -PBE
 At   1 B  16: 100.0% Sh 100.0 % Bf    1 runs, min    4 max    4 av    4.0
 IPart= 26 Atom   1 batch   16 overlaps    2 atoms,     4 shells and     0 DB shells.   NGrid=      1180
 Pruned (  99, 590) grid will be used in numerical quadrature.
 Pruned (  99, 590) grid will be used in numerical quadrature.
 IPart= 20 Atom number   2 atomic number  1 has       21654 grid points.
 Symmetry reduced   590 angular points to   590 for atom    1.
 At   2 B   5: 100.0% Sh 100.0 % Bf    1 runs, min    4 max    4 av    4.0
 IPart= 20 Atom   2 batch    5 overlaps    2 atoms,     4 shells and     0 DB shells.   NGrid=       776
 At   1 B   8: 100.0% Sh 100.0 % Bf    1 runs, min    4 max    4 av    4.0
 IPart= 29 Atom   1 batch    8 overlaps    2 atoms,     4 shells and     0 DB shells.   NGrid=      1180
 IPart=  3 Atom number   1 atomic number  1 has       21654 grid points.
 Pruned (  99, 590) grid will be used in numerical quadrature.
 Pruned (  99, 590) grid will be used in numerical quadrature.
 Symmetry reduced   194 angular points to   194 for atom    2.
 Pruned (  99, 590) grid will be used in numerical quadrature.
 At   1 B  21:  50.0% Sh  50.0 % Bf    2 runs, min    1 max    1 av    1.0
 IPart=  8 Atom   1 batch   21 overlaps    2 atoms,     2 shells and     0 DB shells.   NGrid=       604
 GenRhX: IPrtP1=    0
 IPart= 12 IRanGd=          0 ScrnBf=T ScrnGd=T RCrit=4.00D+00 DoMicB=T.
 NFPSXC: from=Quad1 NMatDP=   1 NFPS=     8 NFPSI=     3 NFPS2=     4 MaxFPS=  1300 MaxFTr=  1300
 GenRhX: IPrtP1=    0
 CutRad = 1000.00    CtRdIn =    0.00    XCrit =  15.00   ICut = 0
 NFPSXC: from=Quad1 NMatDP=   1 NFPS=     8 NFPSI=     3 NFPS2=     4 MaxFPS=  1300 MaxFTr=  1300
 CutRad = 1000.00    CtRdIn =    0.00    XCrit =  15.00   ICut = 0
 Symmetry reduced   302 angular points to   302 for atom    1.
 IPart= 18 Atom number   2 atomic number  1 has       21654 grid points.
 At   2 B   3: 100.0% Sh 100.0 % Bf    1 runs, min    4 max    4 av    4.0
 IPart= 18 Atom   2 batch    3 overlaps    2 atoms,     4 shells and     0 DB shells.   NGrid=       946
 GenRhX: IPrtP1=    0
 Pruned (  99, 590) grid will be used in numerical quadrature.
 GenRhX: IPrtP1=    0
 Symmetry reduced   590 angular points to   590 for atom    1.
 IPart=  4 Atom number   1 atomic number  1 has       21654 grid points.
 GenRhX: IPrtP1=    0
 Pruned (  99, 590) grid will be used in numerical quadrature.
 Symmetry reduced   590 angular points to   590 for atom    1.
 IPart=  4 Atom number   2 atomic number  1 has       21654 grid points.
 At   2 B   9: 100.0% Sh 100.0 % Bf    1 runs, min    4 max    4 av    4.0
 IPart=  4 Atom   2 batch    9 overlaps    2 atoms,     4 shells and     0 DB shells.   NGrid=      1180
 GenRhX: IPrtP1=    0
 Symmetry reduced    86 angular points to    86 for atom    2.
 IPart= 22 Atom number   1 atomic number  1 has       21654 grid points.
 Pruned (  99, 590) grid will be used in numerical quadrature.
 GenRhX: IPrtP1=    0
 IPart=  3 Atom number   2 atomic number  1 has       21654 grid points.
 IPart= 31 Atom number   2 atomic number  1 has       21654 grid points.
 At   1 B  23:  50.0% Sh  50.0 % Bf    2 runs, min    1 max    1 av    1.0
 IPart= 30 Atom   1 batch   23 overlaps    2 atoms,     2 shells and     0 DB shells.   NGrid=       604
 Pruned (  99, 590) grid will be used in numerical quadrature.
 IPart= 22 Atom number   2 atomic number  1 has       21654 grid points.
 IPart= 12 Atom number   1 atomic number  1 has       21654 grid points.
 GenRhX: IPrtP1=    0
 Pruned (  99, 590) grid will be used in numerical quadrature.
 At   2 B   6: 100.0% Sh 100.0 % Bf    1 runs, min    4 max    4 av    4.0
 IPart= 22 Atom   2 batch    6 overlaps    2 atoms,     4 shells and     0 DB shells.   NGrid=      1208
 IPart= 12 Atom number   2 atomic number  1 has       21654 grid points.
 Symmetry reduced   590 angular points to   590 for atom    2.
 At   2 B   8: 100.0% Sh 100.0 % Bf    1 runs, min    4 max    4 av    4.0
 IPart= 12 Atom   2 batch    8 overlaps    2 atoms,     4 shells and     0 DB shells.   NGrid=      1180
 Symmetry reduced   302 angular points to   302 for atom    2.
 GenRhX: IPrtP1=    0
 GenRhX: IPrtP1=    0
 Symmetry reduced   302 angular points to   302 for atom    1.
 GenRhX: IPrtP1=    0
 At   2 B   7: 100.0% Sh 100.0 % Bf    1 runs, min    4 max    4 av    4.0
 IPart=  3 Atom   2 batch    7 overlaps    2 atoms,     4 shells and     0 DB shells.   NGrid=      1208
 Pruned (  99, 590) grid will be used in numerical quadrature.
 GenRhX: IPrtP1=    0
 GenRhX: IPrtP1=    0
 GenRhX: IPrtP1=    0
 IPart=  6 Atom number   2 atomic number  1 has       21654 grid points.
 Symmetry reduced   590 angular points to   590 for atom    2.
 At   2 B   2: 100.0% Sh 100.0 % Bf    1 runs, min    4 max    4 av    4.0
 IPart=  6 Atom   2 batch    2 overlaps    2 atoms,     4 shells and     0 DB shells.   NGrid=       946
 At   2 B   4: 100.0% Sh 100.0 % Bf    1 runs, min    4 max    4 av    4.0
 IPart= 31 Atom   2 batch    4 overlaps    2 atoms,     4 shells and     0 DB shells.   NGrid=       776
 GenRhX: IPrtP1=    0
 Symmetry reduced   302 angular points to   302 for atom    2.
 Symmetry reduced    86 angular points to    86 for atom    2.
 GenRhX: IPrtP1=    0
 GenRhX: IPrtP1=    0
 GenRhX: IPrtP1=    0
 GenRhX: IPrtP1=    0
 Pruned (  99, 590) grid will be used in numerical quadrature.
 GenRhX: IPrtP1=    0
 GenRhX: IPrtP1=    0
 IPart= 11 Atom number   2 atomic number  1 has       21654 grid points.
 At   2 B   1: 100.0% Sh 100.0 % Bf    1 runs, min    4 max    4 av    4.0
 IPart= 11 Atom   2 batch    1 overlaps    2 atoms,     4 shells and     0 DB shells.   NGrid=       946
 GenRhX: IPrtP1=    0
 GenRhX: IPrtP1=    0
 GenRhX: IPrtP1=    0
 GenRhX: IPrtP1=    0
 Symmetry reduced    86 angular points to    86 for atom    2.
 GenRhX: IPrtP1=    0
 GenRhX: IPrtP1=    0
 GenRhX: IPrtP1=    0
 GenRhX: IPrtP1=    0
 GenRhX: IPrtP1=    0
 GenRhX: IPrtP1=    0
 GenRhX: IPrtP1=    0
 GenRhX: IPrtP1=    0
 GenRhX: IPrtP1=    0
 Symmetry reduced   194 angular points to   194 for atom    2.
 GenRhX: IPrtP1=    0
 GenRhX: IPrtP1=    0
 GenRhX: IPrtP1=    0
 GenRhX: IPrtP1=    0
 GenRhX: IPrtP1=    0
 GenRhX: IPrtP1=    0
 GenRhX: IPrtP1=    0
 GenRhX: IPrtP1=    0
 GenRhX: IPrtP1=    0
 GenRhX: IPrtP1=    0
 GenRhX: IPrtP1=    0
 GenRhX: IPrtP1=    0
 GenRhX: IPrtP1=    0
 GenRhX: IPrtP1=    0
 GenRhX: IPrtP1=    0
 Pruned (  99, 590) grid will be used in numerical quadrature.
 GenRhX: IPrtP1=    0
 GenRhX: IPrtP1=    0
 GenRhX: IPrtP1=    0
 GenRhX: IPrtP1=    0
 GenRhX: IPrtP1=    0
 IPart=  9 Atom number   2 atomic number  1 has       21654 grid points.
 GenRhX: IPrtP1=    0
 GenRhX: IPrtP1=    0
 GenRhX: IPrtP1=    0
 GenRhX: IPrtP1=    0
 GenRhX: IPrtP1=    0
 At   2 B  10: 100.0% Sh 100.0 % Bf    1 runs, min    4 max    4 av    4.0
 IPart=  9 Atom   2 batch   10 overlaps    2 atoms,     4 shells and     0 DB shells.   NGrid=      1180
 GenRhX: IPrtP1=    0
 GenRhX: IPrtP1=    0
 Symmetry reduced   590 angular points to   590 for atom    2.
 GenRhX: IPrtP1=    0
 GenRhX: IPrtP1=    0
 GenRhX: IPrtP1=    0
 GenRhX: IPrtP1=    0
 GenRhX: IPrtP1=    0
 GenRhX: IPrtP1=    0
 GenRhX: IPrtP1=    0
 GenRhX: IPrtP1=    0
 GenRhX: IPrtP1=    0
 GenRhX: IPrtP1=    0
 GenRhX: IPrtP1=    0
 GenRhX: IPrtP1=    0
 Pruned (  99, 590) grid will be used in numerical quadrature.
 GenRhX: IPrtP1=    0
 GenRhX: IPrtP1=    0
 IPart= 23 Atom number   2 atomic number  1 has       21654 grid points.
 GenRhX: IPrtP1=    0
 At   2 B  11: 100.0% Sh 100.0 % Bf    1 runs, min    4 max    4 av    4.0
 IPart= 23 Atom   2 batch   11 overlaps    2 atoms,     4 shells and     0 DB shells.   NGrid=      1180
 GenRhX: IPrtP1=    0
 GenRhX: IPrtP1=    0
 GenRhX: IPrtP1=    0
 GenRhX: IPrtP1=    0
 GenRhX: IPrtP1=    0
 Symmetry reduced   590 angular points to   590 for atom    2.
 Pruned (  99, 590) grid will be used in numerical quadrature.
 GenRhX: IPrtP1=    0
 Pruned (  99, 590) grid will be used in numerical quadrature.
 IPart= 10 Atom number   2 atomic number  1 has       21654 grid points.
 At   2 B  12: 100.0% Sh 100.0 % Bf    1 runs, min    4 max    4 av    4.0
 IPart= 10 Atom   2 batch   12 overlaps    2 atoms,     4 shells and     0 DB shells.   NGrid=      1180
 IPart= 25 Atom number   2 atomic number  1 has       21654 grid points.
 At   2 B  13: 100.0% Sh 100.0 % Bf    1 runs, min    4 max    4 av    4.0
 IPart= 25 Atom   2 batch   13 overlaps    2 atoms,     4 shells and     0 DB shells.   NGrid=      1180
 GenRhX: IPrtP1=    0
 GenRhX: IPrtP1=    0
 GenRhX: IPrtP1=    0
 GenRhX: IPrtP1=    0
 Symmetry reduced   590 angular points to   590 for atom    2.
 GenRhX: IPrtP1=    0
 GenRhX: IPrtP1=    0
 Pruned (  99, 590) grid will be used in numerical quadrature.
 Symmetry reduced   590 angular points to   590 for atom    2.
 GenRhX: IPrtP1=    0
 GenRhX: IPrtP1=    0
 GenRhX: IPrtP1=    0
 IPart= 30 Atom number   2 atomic number  1 has       21654 grid points.
 At   2 B  14: 100.0% Sh 100.0 % Bf    1 runs, min    4 max    4 av    4.0
 IPart= 30 Atom   2 batch   14 overlaps    2 atoms,     4 shells and     0 DB shells.   NGrid=      1180
 Pruned (  99, 590) grid will be used in numerical quadrature.
 IPart= 16 Atom number   2 atomic number  1 has       21654 grid points.
 GenRhX: IPrtP1=    0
 Symmetry reduced   590 angular points to   590 for atom    2.
 GenRhX: IPrtP1=    0
 GenRhX: IPrtP1=    0
 Pruned (  99, 590) grid will be used in numerical quadrature.
 At   2 B  15: 100.0% Sh 100.0 % Bf    1 runs, min    4 max    4 av    4.0
 IPart= 16 Atom   2 batch   15 overlaps    2 atoms,     4 shells and     0 DB shells.   NGrid=      1180
 GenRhX: IPrtP1=    0
 IPart= 15 Atom number   2 atomic number  1 has       21654 grid points.
 GenRhX: IPrtP1=    0
 GenRhX: IPrtP1=    0
 GenRhX: IPrtP1=    0
 At   2 B  16: 100.0% Sh 100.0 % Bf    1 runs, min    4 max    4 av    4.0
 IPart= 15 Atom   2 batch   16 overlaps    2 atoms,     4 shells and     0 DB shells.   NGrid=      1180
 GenRhX: IPrtP1=    0
 GenRhX: IPrtP1=    0
 GenRhX: IPrtP1=    0
 GenRhX: IPrtP1=    0
 Symmetry reduced   590 angular points to   590 for atom    2.
 GenRhX: IPrtP1=    0
 Symmetry reduced   590 angular points to   590 for atom    2.
 GenRhX: IPrtP1=    0
 GenRhX: IPrtP1=    0
 GenRhX: IPrtP1=    0
 GenRhX: IPrtP1=    0
 GenRhX: IPrtP1=    0
 GenRhX: IPrtP1=    0
 GenRhX: IPrtP1=    0
 GenRhX: IPrtP1=    0
 GenRhX: IPrtP1=    0
 GenRhX: IPrtP1=    0
 GenRhX: IPrtP1=    0
 GenRhX: IPrtP1=    0
 GenRhX: IPrtP1=    0
 Pruned (  99, 590) grid will be used in numerical quadrature.
 IPart=  2 Atom number   2 atomic number  1 has       21654 grid points.
 At   2 B  17: 100.0% Sh 100.0 % Bf    1 runs, min    4 max    4 av    4.0
 IPart=  2 Atom   2 batch   17 overlaps    2 atoms,     4 shells and     0 DB shells.   NGrid=       604
 GenRhX: IPrtP1=    0
 GenRhX: IPrtP1=    0
 Pruned (  99, 590) grid will be used in numerical quadrature.
 Symmetry reduced   302 angular points to   302 for atom    2.
 GenRhX: IPrtP1=    0
 IPart=  8 Atom number   2 atomic number  1 has       21654 grid points.
 At   2 B  18: 100.0% Sh 100.0 % Bf    1 runs, min    4 max    4 av    4.0
 IPart=  8 Atom   2 batch   18 overlaps    2 atoms,     4 shells and     0 DB shells.   NGrid=       604
 GenRhX: IPrtP1=    0
 GenRhX: IPrtP1=    0
 Symmetry reduced   302 angular points to   302 for atom    2.
 GenRhX: IPrtP1=    0
 GenRhX: IPrtP1=    0
 GenRhX: IPrtP1=    0
 GenRhX: IPrtP1=    0
 GenRhX: IPrtP1=    0
 GenRhX: IPrtP1=    0
 Pruned (  99, 590) grid will be used in numerical quadrature.
 Pruned (  99, 590) grid will be used in numerical quadrature.
 IPart=  1 Atom number   2 atomic number  1 has       21654 grid points.
 GenRhX: IPrtP1=    0
 GenRhX: IPrtP1=    0
 IPart= 17 Atom number   2 atomic number  1 has       21654 grid points.
 GenRhX: IPrtP1=    0
 GenRhX: IPrtP1=    0
 GenRhX: IPrtP1=    0
 At   2 B  20: 100.0% Sh 100.0 % Bf    1 runs, min    4 max    4 av    4.0
 IPart= 17 Atom   2 batch   20 overlaps    2 atoms,     4 shells and     0 DB shells.   NGrid=       604
 GenRhX: IPrtP1=    0
 GenRhX: IPrtP1=    0
 Symmetry reduced   302 angular points to   302 for atom    2.
 GenRhX: IPrtP1=    0
 GenRhX: IPrtP1=    0
 At   2 B  19: 100.0% Sh 100.0 % Bf    1 runs, min    4 max    4 av    4.0
 IPart=  1 Atom   2 batch   19 overlaps    2 atoms,     4 shells and     0 DB shells.   NGrid=       604
 GenRhX: IPrtP1=    0
 GenRhX: IPrtP1=    0
 At   2 B  21:  50.0% Sh  50.0 % Bf    2 runs, min    1 max    1 av    1.0
 IPart= 20 Atom   2 batch   21 overlaps    2 atoms,     2 shells and     0 DB shells.   NGrid=       604
 GenRhX: IPrtP1=    0
 Symmetry reduced   302 angular points to   302 for atom    2.
 Symmetry reduced   302 angular points to   302 for atom    2.
 GenRhX: IPrtP1=    0
 GenRhX: IPrtP1=    0
 GenRhX: IPrtP1=    0
 Pruned (  99, 590) grid will be used in numerical quadrature.
 Pruned (  99, 590) grid will be used in numerical quadrature.
 IPart= 14 Atom number   2 atomic number  1 has       21654 grid points.
 GenRhX: IPrtP1=    0
 IPart= 21 Atom number   2 atomic number  1 has       21654 grid points.
 At   2 B  23:  50.0% Sh  50.0 % Bf    2 runs, min    1 max    1 av    1.0
 IPart= 14 Atom   2 batch   23 overlaps    2 atoms,     2 shells and     0 DB shells.   NGrid=       604
 GenRhX: IPrtP1=    0
 At   2 B  22:  50.0% Sh  50.0 % Bf    2 runs, min    1 max    1 av    1.0
[...]
 IPart= 30         1692 of         1784 points in       2 batches and       15 microbatches, Max-NSigAt=       2 Max-NSgAt2=       2
 Electron Count                      =         0.0475055768
 CalDSu-ThDecC:  IPartSL=   30    0 NPrtUSL=   32    1 IThBeg=    0 IThEnd=   31 CPU=   -1 GPU=   -1 NThAct=    3.
 IPart= 21         1692 of         1784 points in       2 batches and       22 microbatches, Max-NSigAt=       2 Max-NSgAt2=       2
 Electron Count                      =         0.0670758966
 CalDSu-ThDecC:  IPartSL=   21    0 NPrtUSL=   32    1 IThBeg=    0 IThEnd=   31 CPU=   -1 GPU=   -1 NThAct=    2.
 IPart=  3         1688 of         1784 points in       2 batches and       25 microbatches, Max-NSigAt=       2 Max-NSgAt2=       2
 Electron Count                      =         0.0301006815
 CalDSu-ThDecC:  IPartSL=    3    0 NPrtUSL=   32    1 IThBeg=    0 IThEnd=   31 CPU=   -1 GPU=   -1 NThAct=    1.
 There are a total of           0 grid points.
 ElSum from          density=        1.9999999994
 TDGrad term
 I=    0 X=   0.000000000000D+00 Y=   0.000000000000D+00 Z=   0.000000000000D+00
 I=    1 X=   0.000000000000D+00 Y=   0.000000000000D+00 Z=   7.104821728771D-02
 I=    2 X=   0.000000000000D+00 Y=   0.000000000000D+00 Z=  -7.104821728771D-02
 <GnsIx>
 I=    0 X=   0.000000000000D+00 Y=   0.000000000000D+00 Z=   0.000000000000D+00
 I=    1 X=   0.000000000000D+00 Y=   0.000000000000D+00 Z=   0.000000000000D+00
 I=    2 X=   0.000000000000D+00 Y=   0.000000000000D+00 Z=   0.000000000000D+00
 Final Forces in DoPSCFG:
 I=    0 X=   0.000000000000D+00 Y=   0.000000000000D+00 Z=   0.000000000000D+00
 I=    1 X=   0.000000000000D+00 Y=   0.000000000000D+00 Z=   1.780299270742D-01
 I=    2 X=   0.000000000000D+00 Y=   0.000000000000D+00 Z=  -1.780299270742D-01
 Dipole from   DoPSCFG =   -0.000000000000D+00  -0.000000000000D+00  -1.243449787580D-14
 Dipole after  DoPSCFG =   -0.000000000000D+00  -0.000000000000D+00  -1.243449787580D-14
 Leave Link 1014 at Thu Jan 16 11:13:23 2025, MaxMem=   268435456 cpu:               2.2 elap:               0.1
 (Enter /home/hagai/g16/g16/l601.exe)
 Copying SCF densities to generalized density rwf, IOpCl= 0 IROHF=0.

 **********************************************************************

            Population analysis using the SCF density.

 **********************************************************************

 Alpha  occ. eigenvalues --   -0.44247
 Alpha virt. eigenvalues --    0.11595   0.60453   1.14161
          Condensed to atoms (all electrons):
               1          2
     1  H    0.596877   0.403123
     2  H    0.403123   0.596877
 Mulliken charges:
               1
     1  H   -0.000000
     2  H    0.000000
 Sum of Mulliken charges =  -0.00000
 Mulliken charges with hydrogens summed into heavy atoms:
               1
 APT charges:
               1
     1  H   -0.000000
     2  H    0.000000
 Sum of APT charges =   0.00000
 APT charges with hydrogens summed into heavy atoms:
               1
 Electronic spatial extent (au):  <R**2>=              6.1330
 Charge=             -0.0000 electrons
 Dipole moment (field-independent basis, Debye):
    X=              0.0000    Y=              0.0000    Z=              0.0000  Tot=              0.0000
 Quadrupole moment (field-independent basis, Debye-Ang):
   XX=             -2.0137   YY=             -2.0137   ZZ=             -1.5915
   XY=              0.0000   XZ=              0.0000   YZ=              0.0000
 Traceless Quadrupole moment (field-independent basis, Debye-Ang):
   XX=             -0.1407   YY=             -0.1407   ZZ=              0.2815
   XY=              0.0000   XZ=              0.0000   YZ=              0.0000
 Octapole moment (field-independent basis, Debye-Ang**2):
  XXX=              0.0000  YYY=              0.0000  ZZZ=             -1.7665  XYY=              0.0000
  XXY=              0.0000  XXZ=             -0.7451  XZZ=              0.0000  YZZ=              0.0000
  YYZ=             -0.7451  XYZ=              0.0000
 Hexadecapole moment (field-independent basis, Debye-Ang**3):
 XXXX=             -1.8486 YYYY=             -1.8486 ZZZZ=             -4.1097 XXXY=              0.0000
 XXXZ=              0.0000 YYYX=              0.0000 YYYZ=              0.0000 ZZZX=              0.0000
 ZZZY=              0.0000 XXYY=             -0.6162 XXZZ=             -1.0618 YYZZ=             -1.0618
 XXYZ=              0.0000 YYXZ=              0.0000 ZZXY=              0.0000
 N-N= 7.151043390811D-01 E-N=-3.637782760473D+00  KE= 1.141556484120D+00
  Exact polarizability:   0.000   0.000   0.000   0.000   0.000   2.859
 Approx polarizability:  -0.000  -0.000  -0.000  -0.000  -0.000   7.541
 No NMR shielding tensors so no spin-rotation constants.
 Leave Link  601 at Thu Jan 16 11:13:23 2025, MaxMem=   268435456 cpu:               0.5 elap:               0.0
 (Enter /home/hagai/g16/g16/l701.exe)
 ... and contract with generalized density number  6.
 Compute integral second derivatives.
 Compute integral first derivatives.
 Leave Link  701 at Thu Jan 16 11:13:23 2025, MaxMem=   268435456 cpu:               1.3 elap:               0.1
 (Enter /home/hagai/g16/g16/l702.exe)
 L702 exits ... SP integral derivatives will be done elsewhere.
 Leave Link  702 at Thu Jan 16 11:13:23 2025, MaxMem=   268435456 cpu:               0.1 elap:               0.0
 (Enter /home/hagai/g16/g16/l703.exe)
 Integral derivatives from FoFJK, PRISM(SPDF).
 Compute integral second derivatives, UseDBF=F ICtDFT=           0.
 Calling FoFJK, ICntrl=  10105127 FMM=F ISym2X=0 I1Cent= 0 IOpClX= 0 NMat=1 NMatS=1 NMatT=0.
 FoFJK:  IHMeth= 1 ICntrl=10105127 DoSepK=F KAlg= 0 I1Cent=           0 FoldK=F
 IRaf=         0 NMat=       1 IRICut=       1 DoRegI=T DoRafI=F ISym2E= 0 IDoP0=0 IntGTp=1.
 FoFCou: FMM=F IPFlag=           0 FMFlag=      100000 FMFlg1=         800
         NFxFlg=           0 DoJE=F BraDBF=F KetDBF=F FulRan=T
         wScrn=  0.000000 ICntrl=  10105127 IOpCl=  0 I1Cent=           0 NGrid=           0
         NMat0=    1 NMatS0=      1 NMatT0=    0 NMatD0=    1 NMtDS0=    0 NMtDT0=    0
 Symmetry not used in FoFCou.
 Compute integral first derivatives, UseDBF=F ICtDFT=           0.
 Calling FoFJK, ICntrl=  10002127 FMM=F ISym2X=0 I1Cent= 0 IOpClX= 0 NMat=1 NMatS=1 NMatT=0.
 Leave Link  703 at Thu Jan 16 11:13:23 2025, MaxMem=   268435456 cpu:               1.1 elap:               0.1
 (Enter /home/hagai/g16/g16/l716.exe)
 Dipole        = 0.00000000D+00 0.00000000D+00-1.24344979D-14
 Polarizability= 0.00000000D+00 0.00000000D+00 0.00000000D+00
                 0.00000000D+00 0.00000000D+00 2.85908576D+00
 Full mass-weighted force constant matrix:
 Low frequencies ----2583.7171-2583.7171   -0.0001   -0.0001    0.0000 4896.1700
 Diagonal vibrational polarizability:
        0.0000000       0.0000000       0.0000000
 Harmonic frequencies (cm**-1), IR intensities (KM/Mole), Raman scattering
 activities (A**4/AMU), depolarization ratios for plane and unpolarized
 incident light, reduced masses (AMU), force constants (mDyne/A),
 and normal coordinates:
                      1
                      A
 Frequencies --   4896.1700
 Red. masses --      1.0078
 Frc consts  --     14.2347
 IR Inten    --      0.0000
  Atom  AN      X      Y      Z
     1   1     0.00   0.00   0.71
     2   1     0.00   0.00  -0.71

 -------------------
 - Thermochemistry -
 -------------------
 Temperature   298.150 Kelvin.  Pressure   1.00000 Atm.
 Atom     1 has atomic number  1 and mass   1.00783
 Atom     2 has atomic number  1 and mass   1.00783
 Molecular mass:     2.01565 amu.
 Principal axes and moments of inertia in atomic units:
                           1         2         3
     Eigenvalues --     0.00000   0.98541   0.98541
           X            0.00000  -0.00000   1.00000
           Y            0.00000   1.00000   0.00000
           Z            1.00000   0.00000   0.00000
 This molecule is a prolate symmetric top.
 Rotational symmetry number  2.
 Rotational temperature (Kelvin)     87.89646
 Rotational constant (GHZ):        1831.464954
 Zero-point vibrational energy      29285.6 (Joules/Mol)
                                    6.99943 (Kcal/Mol)
 Vibrational temperatures:   7044.50
          (Kelvin)
 
 Zero-point correction=                           0.011154 (Hartree/Particle)
 Thermal correction to Energy=                    0.013515
 Thermal correction to Enthalpy=                  0.014459
 Thermal correction to Gibbs Free Energy=        -0.000326
 Sum of electronic and zero-point Energies=             -0.598303
 Sum of electronic and thermal Energies=                -0.595943
 Sum of electronic and thermal Enthalpies=              -0.594998
 Sum of electronic and thermal Free Energies=           -0.609783
 
                     E (Thermal)             CV                S
                      KCal/Mol        Cal/Mol-Kelvin    Cal/Mol-Kelvin
 Total                    8.481              4.968             31.117
 Electronic               0.000              0.000              0.000
 Translational            0.889              2.981             28.080
 Rotational               0.592              1.987              3.037
 Vibrational              6.999              0.000              0.000
                       Q            Log10(Q)             Ln(Q)
 Total Bot       0.141219D+01          0.149895          0.345145
 Total V=0       0.190770D+06          5.280510         12.158824
 Vib (Bot)       0.740260D-05         -5.130615        -11.813679
 Vib (V=0)       0.100000D+01          0.000000          0.000000
 Electronic      0.100000D+01          0.000000          0.000000
 Translational   0.112480D+06          5.051077         11.630534
 Rotational      0.169603D+01          0.229433          0.528290
 -------------------------------------------------------------------
 Center     Atomic                   Forces (Hartrees/Bohr)
 Number     Number              X              Y              Z
 -------------------------------------------------------------------
      1        1          -0.000000000   -0.000000000   -0.178029927
      2        1          -0.000000000   -0.000000000    0.178029927
 -------------------------------------------------------------------
 Cartesian Forces:  Max     0.178029927 RMS     0.102785626
 -------------------------------------------------------------------
 Center     Atomic                Nonadiabatic Coup. (Bohr^-1)
 Number     Number              X              Y              Z
 -------------------------------------------------------------------
      1        1           0.000000000    0.000000000    0.306760431
      2        1           0.000000000    0.000000000    0.306760431
 -------------------------------------------------------------------
 Cartesian Nonad. Coup.:  Max     0.306760431 RMS     0.177108217
 Z-matrix is all fixed cartesians, so copy forces.
 Force constants in Cartesian coordinates: 
                1             2             3             4             5 
      1 -0.127302D+00
      2  0.000000D+00 -0.127302D+00
      3  0.000000D+00  0.000000D+00  0.457151D+00
      4  0.127302D+00  0.000000D+00  0.000000D+00 -0.127302D+00
      5  0.000000D+00  0.127302D+00  0.000000D+00  0.000000D+00 -0.127302D+00
      6  0.000000D+00  0.000000D+00 -0.457151D+00  0.000000D+00  0.000000D+00
                6 
      6  0.457151D+00
 Leave Link  716 at Thu Jan 16 11:13:23 2025, MaxMem=   268435456 cpu:               0.1 elap:               0.0
 (Enter /home/hagai/g16/g16/l103.exe)

 GradGradGradGradGradGradGradGradGradGradGradGradGradGradGradGradGradGrad
 Berny optimization.
 Search for a local minimum.
 Step number   1 out of a maximum of    2
 All quantities printed in internal units (Hartrees-Bohrs-Radians)
 Second derivative matrix not updated -- analytic derivatives used.
 The second derivative matrix:
                          X1        Y1        Z1        X2        Y2
           X1          -0.12730
           Y1           0.00000  -0.12730
           Z1           0.00000   0.00000   0.45715
           X2           0.12730   0.00000   0.00000  -0.12730
           Y2           0.00000   0.12730   0.00000   0.00000  -0.12730
           Z2           0.00000   0.00000  -0.45715   0.00000   0.00000
                          Z2
           Z2           0.45715
 ITU=  0
     Eigenvalues ---    0.91430
 Angle between quadratic step and forces=   0.00 degrees.
 Linear search not attempted -- first point.
 B after Tr=     0.000000    0.000000    0.000000
         Rot=    1.000000    0.000000    0.000000    0.000000 Ang=   0.00 deg.
 Variable       Old X    -DE/DX   Delta X   Delta X   Delta X     New X
                                 (Linear)    (Quad)   (Total)
    X1        0.00000  -0.00000   0.00000   0.00000   0.00000   0.00000
    Y1        0.00000  -0.00000   0.00000   0.00000   0.00000   0.00000
    Z1        0.00000  -0.17803   0.00000  -0.19472  -0.19472  -0.19472
    X2        0.00000  -0.00000   0.00000   0.00000   0.00000   0.00000
    Y2        0.00000  -0.00000   0.00000   0.00000   0.00000   0.00000
    Z2        1.39840   0.17803   0.00000   0.19472   0.19472   1.59311
         Item               Value     Threshold  Converged?
 Maximum Force            0.178030     0.000450     NO 
 RMS     Force            0.102786     0.000300     NO 
 Maximum Displacement     0.194717     0.001800     NO 
 RMS     Displacement     0.112420     0.001200     NO 
 Predicted change in Energy=-3.466542D-02
 GradGradGradGradGradGradGradGradGradGradGradGradGradGradGradGradGradGrad

 Leave Link  103 at Thu Jan 16 11:13:23 2025, MaxMem=   268435456 cpu:               0.1 elap:               0.0
 (Enter /home/hagai/g16/g16/l9999.exe)
 -------------------------------------------------------------------
 Center     Atomic                Nonadiabatic Coup. (Bohr^-1)
 Number     Number              X              Y              Z
 -------------------------------------------------------------------
      1        1           0.000000000    0.000000000    0.306760431
      2        1           0.000000000    0.000000000    0.306760431
 -------------------------------------------------------------------
 Cartesian Nonad. Coup.:  Max     0.306760431 RMS     0.177108217
 Electronic transition elements 
                 1             2             3 
      1  -0.609457D+00 -0.113402D+00  0.420384D+00
      2   0.000000D+00  0.000000D+00  0.000000D+00
      3   0.000000D+00  0.000000D+00  0.000000D+00
      4   0.141789D+01  0.000000D+00 -0.361568D+00
      5   0.000000D+00  0.000000D+00  0.000000D+00
      6   0.000000D+00  0.000000D+00  0.000000D+00
      7  -0.613521D+00  0.000000D+00  0.249942D+00
      8   0.000000D+00  0.000000D+00  0.000000D+00
      9   0.000000D+00  0.000000D+00  0.000000D+00
     10   0.000000D+00  0.000000D+00  0.000000D+00
     11   0.000000D+00 -0.900491D+00  0.000000D+00
     12   0.000000D+00 -0.900491D+00  0.000000D+00
     13  -0.857946D+00 -0.697240D+00  0.349518D+00
     14   0.000000D+00  0.000000D+00  0.000000D+00
     15   0.000000D+00  0.000000D+00  0.000000D+00
     16   0.000000D+00  0.000000D+00  0.000000D+00
 Electronic Transition Derivatives 
                 1             2             3             4             5 
      1   0.000000D+00  0.000000D+00  0.000000D+00  0.000000D+00  0.000000D+00
      2   0.000000D+00  0.000000D+00  0.000000D+00 -0.101394D+01  0.000000D+00
      3   0.000000D+00  0.000000D+00  0.000000D+00  0.000000D+00 -0.101394D+01
      4   0.000000D+00  0.000000D+00  0.000000D+00  0.000000D+00  0.000000D+00
      5   0.000000D+00  0.000000D+00  0.000000D+00  0.438731D+00  0.000000D+00
      6   0.000000D+00  0.000000D+00  0.000000D+00  0.000000D+00  0.438731D+00
      7   0.000000D+00  0.000000D+00  0.000000D+00  0.000000D+00  0.000000D+00
      8   0.000000D+00  0.000000D+00  0.000000D+00  0.000000D+00 -0.613521D+00
      9   0.000000D+00  0.000000D+00  0.000000D+00  0.613521D+00  0.000000D+00
     10   0.000000D+00  0.000000D+00  0.000000D+00  0.000000D+00  0.000000D+00
     11   0.000000D+00  0.000000D+00 -0.140848D+01  0.000000D+00  0.000000D+00
     12   0.000000D+00  0.000000D+00 -0.140848D+01  0.000000D+00  0.000000D+00
     13   0.000000D+00  0.000000D+00 -0.114798D+01  0.000000D+00  0.000000D+00
     14   0.000000D+00  0.000000D+00  0.000000D+00  0.000000D+00  0.000000D+00
     15   0.000000D+00  0.000000D+00  0.000000D+00  0.000000D+00  0.000000D+00
     16   0.000000D+00  0.000000D+00  0.000000D+00  0.000000D+00  0.000000D+00
                 6             7             8             9 
      1   0.000000D+00  0.000000D+00  0.000000D+00  0.000000D+00
      2   0.000000D+00  0.101394D+01  0.000000D+00  0.000000D+00
      3   0.000000D+00  0.000000D+00  0.101394D+01  0.000000D+00
      4  -0.605018D+00  0.000000D+00  0.000000D+00  0.605018D+00
      5   0.000000D+00 -0.438731D+00  0.000000D+00  0.000000D+00
      6   0.000000D+00  0.000000D+00 -0.438731D+00  0.000000D+00
      7  -0.106715D+00  0.000000D+00  0.000000D+00  0.106715D+00
      8   0.000000D+00  0.000000D+00  0.000000D+00  0.000000D+00
      9   0.000000D+00  0.000000D+00  0.000000D+00  0.000000D+00
     10   0.000000D+00  0.000000D+00  0.000000D+00  0.000000D+00
     11   0.000000D+00  0.000000D+00  0.000000D+00  0.000000D+00
     12   0.000000D+00  0.000000D+00  0.000000D+00  0.000000D+00
     13  -0.762750D+00  0.000000D+00  0.000000D+00 -0.464291D+00
     14   0.000000D+00  0.000000D+00  0.000000D+00  0.000000D+00
     15   0.000000D+00 -0.613521D+00  0.000000D+00  0.000000D+00
     16   0.000000D+00  0.000000D+00 -0.613521D+00  0.000000D+00
 Dipole is zero, so no output in dipole orientation.

 ----------------------------------------------------------------------

 Electric dipole moment (input orientation):
 (Debye = 10**-18 statcoulomb cm , SI units = C m)
                  (au)            (Debye)         (10**-30 SI)
   Tot        0.000000D+00      0.000000D+00      0.000000D+00
   x          0.000000D+00      0.000000D+00      0.000000D+00
   y          0.000000D+00      0.000000D+00      0.000000D+00
   z          0.000000D+00      0.000000D+00      0.000000D+00

 Dipole polarizability, Alpha (input orientation).
 (esu units = cm**3 , SI units = C**2 m**2 J**-1)
 Alpha(0;0):
               (au)            (10**-24 esu)      (10**-40 SI)
   iso        0.953029D+00      0.141224D+00      0.157133D+00
   aniso      0.285909D+01      0.423673D+00      0.471400D+00
   xx         0.000000D+00      0.000000D+00      0.000000D+00
   yx         0.000000D+00      0.000000D+00      0.000000D+00
   yy         0.000000D+00      0.000000D+00      0.000000D+00
   zx         0.000000D+00      0.000000D+00      0.000000D+00
   zy         0.000000D+00      0.000000D+00      0.000000D+00
   zz         0.285909D+01      0.423673D+00      0.471400D+00

 ----------------------------------------------------------------------

 Test job not archived.
 1\1\GINC-GP6\Freq\RPBE1PBE TDA-FC\6-31G\H2\HAGAI\16-Jan-2025\0\\#p tda
 (nstates=6,root=1,conver=6) freq PBE1PBE/6-31G 6D 10F nosymm GFInput s
 cf=tight IOP(10/33=4,10/95=9)\\title\\0,1\H,0.,0.,0.\H,0.,0.,0.74\\Ver
 sion=AS64L-G16RevA.03\HF=-1.163877\RMSD=1.144e-09\RMSF=1.028e-01\ZeroP
 oint=0.0111543\Thermal=0.0135148\Dipole=0.,0.,0.\DipoleDeriv=0.,0.,0.,
 0.,0.,0.,0.,0.,0.,0.,0.,0.,0.,0.,0.,0.,0.,0.\Polar=0.,0.,0.,0.,0.,2.85
 90858\PG=D*H [C*(H1.H1)]\NImag=0\\-0.12730238,0.,-0.12730238,0.,0.,0.4
 5715089,0.12730238,0.,0.,-0.12730238,0.,0.12730238,0.,0.,-0.12730238,0
 .,0.,-0.45715089,0.,0.,0.45715089\\0.,0.,0.17802993,0.,0.,-0.17802993\
 \\@


 LIFE IS A CONTINUAL STRUGGLE AGAINST THE TENDENCY TO PRODUCE ENTROPY.
 Job cpu time:       0 days  0 hours  0 minutes 11.7 seconds.
 Elapsed time:       0 days  0 hours  0 minutes  0.8 seconds.
 File lengths (MBytes):  RWF=      6 Int=      0 D2E=      0 Chk=      1 Scr=      1
 Normal termination of Gaussian 16 at Thu Jan 16 11:13:23 2025.
